LAMMPS (10 Feb 2021)
OMP_NUM_THREADS environment is not set. Defaulting to 1 thread. (src/comm.cpp:94)
  using 1 OpenMP thread(s) per MPI task
units si
atom_style atomic
atom_modify map array sort 0 0.0
dimension 3
lattice bcc 3.15
Lattice spacing in x,y,z = 3.1500000 3.1500000 3.1500000
region box block 0 10 0 10 0 10
create_box 2 box
Created orthogonal box = (0.0000000 0.0000000 0.0000000) to (31.500000 31.500000 31.500000)
  1 by 1 by 1 MPI processor grid
create_atoms 1 box
Created 2000 atoms
  create_atoms CPU = 0.002 seconds
create_atoms 2 single 0 0 1
Created 1 atoms
  create_atoms CPU = 0.000 seconds
create_atoms 2 single 1 2 4
Created 1 atoms
  create_atoms CPU = 0.000 seconds
create_atoms 2 single 3 6 6
Created 1 atoms
  create_atoms CPU = 0.000 seconds
mass 1 1.59e-25
mass 2 2.65e-26
pair_style lj/cut 2.5
pair_coeff * * 1.0 1.0 2.5
pair_modify shift yes
neighbor 0.3 bin
neigh_modify delay 0 every 1 check yes
run 0
WARNING: No fixes defined, atoms won't move (src/verlet.cpp:54)
Neighbor list info ...
  update every 1 steps, delay 0 steps, check yes
  max neighbors/atom: 2000, page size: 100000
  master list distance cutoff = 2.8
  ghost atom cutoff = 2.8
  binsize = 1.4, bins = 23 23 23
  1 neighbor lists, perpetual/occasional/extra = 1 0 0
  (1) pair lj/cut, perpetual
      attributes: half, newton on
      pair build: half/bin/atomonly/newton
      stencil: half/bin/3d/newton
      bin: standard
Per MPI rank memory allocation (min/avg/max) = 3.078 | 3.078 | 3.078 Mbytes
Step Temp E_pair E_mol TotEng Press 
       0            0          inf            0          inf         -nan 
Loop time of 1.69277e-05 on 1 procs for 0 steps with 2003 atoms

0.0% CPU use with 1 MPI tasks x 1 OpenMP threads

MPI task timing breakdown:
Section |  min time  |  avg time  |  max time  |%varavg| %total
---------------------------------------------------------------
Pair    | 0          | 0          | 0          |   0.0 |  0.00
Neigh   | 0          | 0          | 0          |   0.0 |  0.00
Comm    | 0          | 0          | 0          |   0.0 |  0.00
Output  | 0          | 0          | 0          |   0.0 |  0.00
Modify  | 0          | 0          | 0          |   0.0 |  0.00
Other   |            | 1.693e-05  |            |       |100.00

Nlocal:        2003.00 ave        2003 max        2003 min
Histogram: 1 0 0 0 0 0 0 0 0 0
Nghost:        1062.00 ave        1062 max        1062 min
Histogram: 1 0 0 0 0 0 0 0 0 0
Neighs:        8027.00 ave        8027 max        8027 min
Histogram: 1 0 0 0 0 0 0 0 0 0

Total # of neighbors = 8027
Ave neighs/atom = 4.0074888
Neighbor list builds = 0
Dangerous builds = 0
print "$(pe)"
inf
info system
info system
info system
print "$(x[1])"
0
print "$(y[1])"
0
print "$(z[1])"
0
info system
info system
print "$(x[1])"
0
print "$(y[1])"
0
print "$(z[1])"
0
info system
info system
set atom 1 x -4.1119032019947275e-09
Setting atom values ...
  1 settings made for x
set atom 1 y -4.276563819195338e-09
Setting atom values ...
  1 settings made for y
set atom 1 z 3.861796964274809e-09
Setting atom values ...
  1 settings made for z
info system
info system
print "$(x[2])"
1.5749999999999999556
print "$(y[2])"
1.5749999999999999556
print "$(z[2])"
1.5749999999999999556
info system
info system
print "$(x[2])"
1.5749999999999999556
print "$(y[2])"
1.5749999999999999556
print "$(z[2])"
1.5749999999999999556
info system
info system
set atom 2 x 1.5749999981425116
Setting atom values ...
  1 settings made for x
set atom 2 y 1.5749999950757854
Setting atom values ...
  1 settings made for y
set atom 2 z 1.5750000013793595
Setting atom values ...
  1 settings made for z
info system
info system
print "$(x[3])"
3.1499999999999999112
print "$(y[3])"
0
print "$(z[3])"
0
info system
info system
print "$(x[3])"
3.1499999999999999112
print "$(y[3])"
0
print "$(z[3])"
0
info system
info system
set atom 3 x 3.1500000028806774
Setting atom values ...
  1 settings made for x
set atom 3 y 3.3131474575548956e-09
Setting atom values ...
  1 settings made for y
set atom 3 z 2.590711634458778e-09
Setting atom values ...
  1 settings made for z
info system
info system
print "$(x[4])"
4.7249999999999996447
print "$(y[4])"
1.5749999999999999556
print "$(z[4])"
1.5749999999999999556
info system
info system
print "$(x[4])"
4.7249999999999996447
print "$(y[4])"
1.5749999999999999556
print "$(z[4])"
1.5749999999999999556
info system
info system
set atom 4 x 4.725000004304738
Setting atom values ...
  1 settings made for x
set atom 4 y 1.5749999954734757
Setting atom values ...
  1 settings made for y
set atom 4 z 1.5749999943011141
Setting atom values ...
  1 settings made for z
info system
info system
print "$(x[5])"
6.2999999999999998224
print "$(y[5])"
0
print "$(z[5])"
0
info system
info system
print "$(x[5])"
6.2999999999999998224
print "$(y[5])"
0
print "$(z[5])"
0
info system
info system
set atom 5 x 6.29999999488199
Setting atom values ...
  1 settings made for x
set atom 5 y 5.535961890923939e-09
Setting atom values ...
  1 settings made for y
set atom 5 z -2.7581093754392154e-09
Setting atom values ...
  1 settings made for z
info system
info system
print "$(x[6])"
7.875
print "$(y[6])"
1.5749999999999999556
print "$(z[6])"
1.5749999999999999556
info system
info system
print "$(x[6])"
7.875
print "$(y[6])"
1.5749999999999999556
print "$(z[6])"
1.5749999999999999556
info system
info system
set atom 6 x 7.875000000137001
Setting atom values ...
  1 settings made for x
set atom 6 y 1.5750000037435086
Setting atom values ...
  1 settings made for y
set atom 6 z 1.5749999963529813
Setting atom values ...
  1 settings made for z
info system
info system
print "$(x[7])"
9.4499999999999992895
print "$(y[7])"
0
print "$(z[7])"
0
info system
info system
print "$(x[7])"
9.4499999999999992895
print "$(y[7])"
0
print "$(z[7])"
0
info system
info system
set atom 7 x 9.449999985264263
Setting atom values ...
  1 settings made for x
set atom 7 y -1.5004692680034197e-08
Setting atom values ...
  1 settings made for y
set atom 7 z 4.4558459961516415e-09
Setting atom values ...
  1 settings made for z
info system
info system
print "$(x[8])"
11.025000000000000355
print "$(y[8])"
1.5749999999999999556
print "$(z[8])"
1.5749999999999999556
info system
info system
print "$(x[8])"
11.025000000000000355
print "$(y[8])"
1.5749999999999999556
print "$(z[8])"
1.5749999999999999556
info system
info system
set atom 8 x 11.025000011034114
Setting atom values ...
  1 settings made for x
set atom 8 y 1.5750000113393838
Setting atom values ...
  1 settings made for y
set atom 8 z 1.5750000018427008
Setting atom values ...
  1 settings made for z
info system
info system
print "$(x[9])"
12.599999999999999645
print "$(y[9])"
0
print "$(z[9])"
0
info system
info system
print "$(x[9])"
12.599999999999999645
print "$(y[9])"
0
print "$(z[9])"
0
info system
info system
set atom 9 x 12.600000003246768
Setting atom values ...
  1 settings made for x
set atom 9 y -4.532710654828122e-09
Setting atom values ...
  1 settings made for y
set atom 9 z -1.0072551113000637e-08
Setting atom values ...
  1 settings made for z
info system
info system
print "$(x[10])"
14.174999999999998934
print "$(y[10])"
1.5749999999999999556
print "$(z[10])"
1.5749999999999999556
info system
info system
print "$(x[10])"
14.174999999999998934
print "$(y[10])"
1.5749999999999999556
print "$(z[10])"
1.5749999999999999556
info system
info system
set atom 10 x 14.175000005614612
Setting atom values ...
  1 settings made for x
set atom 10 y 1.575000004058591
Setting atom values ...
  1 settings made for y
set atom 10 z 1.5749999857139336
Setting atom values ...
  1 settings made for z
info system
info system
print "$(x[11])"
15.75
print "$(y[11])"
0
print "$(z[11])"
0
info system
info system
print "$(x[11])"
15.75
print "$(y[11])"
0
print "$(z[11])"
0
info system
info system
set atom 11 x 15.750000033418251
Setting atom values ...
  1 settings made for x
set atom 11 y -2.1314632430837063e-08
Setting atom values ...
  1 settings made for y
set atom 11 z 1.4287525428208346e-08
Setting atom values ...
  1 settings made for z
info system
info system
print "$(x[12])"
17.324999999999999289
print "$(y[12])"
1.5749999999999999556
print "$(z[12])"
1.5749999999999999556
info system
info system
print "$(x[12])"
17.324999999999999289
print "$(y[12])"
1.5749999999999999556
print "$(z[12])"
1.5749999999999999556
info system
info system
set atom 12 x 17.324999976837194
Setting atom values ...
  1 settings made for x
set atom 12 y 1.5749999823383045
Setting atom values ...
  1 settings made for y
set atom 12 z 1.5749999836782953
Setting atom values ...
  1 settings made for z
info system
info system
print "$(x[13])"
18.899999999999998579
print "$(y[13])"
0
print "$(z[13])"
0
info system
info system
print "$(x[13])"
18.899999999999998579
print "$(y[13])"
0
print "$(z[13])"
0
info system
info system
set atom 13 x 18.899999971349523
Setting atom values ...
  1 settings made for x
set atom 13 y -2.421994018683618e-08
Setting atom values ...
  1 settings made for y
set atom 13 z -1.1877938004897719e-08
Setting atom values ...
  1 settings made for z
info system
info system
print "$(x[14])"
20.474999999999997868
print "$(y[14])"
1.5749999999999999556
print "$(z[14])"
1.5749999999999999556
info system
info system
print "$(x[14])"
20.474999999999997868
print "$(y[14])"
1.5749999999999999556
print "$(z[14])"
1.5749999999999999556
info system
info system
set atom 14 x 20.4749999633404
Setting atom values ...
  1 settings made for x
set atom 14 y 1.575000003064496
Setting atom values ...
  1 settings made for y
set atom 14 z 1.5750000077691864
Setting atom values ...
  1 settings made for z
info system
info system
print "$(x[15])"
22.050000000000000711
print "$(y[15])"
0
print "$(z[15])"
0
info system
info system
print "$(x[15])"
22.050000000000000711
print "$(y[15])"
0
print "$(z[15])"
0
info system
info system
set atom 15 x 22.049999937831245
Setting atom values ...
  1 settings made for x
set atom 15 y 2.563229244731238e-08
Setting atom values ...
  1 settings made for y
set atom 15 z -6.519910741553547e-08
Setting atom values ...
  1 settings made for z
info system
info system
print "$(x[16])"
23.625
print "$(y[16])"
1.5749999999999999556
print "$(z[16])"
1.5749999999999999556
info system
info system
print "$(x[16])"
23.625
print "$(y[16])"
1.5749999999999999556
print "$(z[16])"
1.5749999999999999556
info system
info system
set atom 16 x 23.62500004637519
Setting atom values ...
  1 settings made for x
set atom 16 y 1.5750000178428676
Setting atom values ...
  1 settings made for y
set atom 16 z 1.574999945916707
Setting atom values ...
  1 settings made for z
info system
info system
print "$(x[17])"
25.199999999999999289
print "$(y[17])"
0
print "$(z[17])"
0
info system
info system
print "$(x[17])"
25.199999999999999289
print "$(y[17])"
0
print "$(z[17])"
0
info system
info system
set atom 17 x 25.20000008012817
Setting atom values ...
  1 settings made for x
set atom 17 y -8.633439827822451e-08
Setting atom values ...
  1 settings made for y
set atom 17 z 8.527264595470837e-08
Setting atom values ...
  1 settings made for z
info system
info system
print "$(x[18])"
26.774999999999998579
print "$(y[18])"
1.5749999999999999556
print "$(z[18])"
1.5749999999999999556
info system
info system
print "$(x[18])"
26.774999999999998579
print "$(y[18])"
1.5749999999999999556
print "$(z[18])"
1.5749999999999999556
info system
info system
set atom 18 x 26.7750000306017
Setting atom values ...
  1 settings made for x
set atom 18 y 1.5750000578305008
Setting atom values ...
  1 settings made for y
set atom 18 z 1.5749999556838574
Setting atom values ...
  1 settings made for z
info system
info system
print "$(x[19])"
28.349999999999997868
print "$(y[19])"
0
print "$(z[19])"
0
info system
info system
print "$(x[19])"
28.349999999999997868
print "$(y[19])"
0
print "$(z[19])"
0
info system
info system
set atom 19 x 28.34999986859797
Setting atom values ...
  1 settings made for x
set atom 19 y -1.2676978050468003e-07
Setting atom values ...
  1 settings made for y
set atom 19 z 5.7945103107836906e-08
Setting atom values ...
  1 settings made for z
info system
info system
print "$(x[20])"
29.925000000000000711
print "$(y[20])"
1.5749999999999999556
print "$(z[20])"
1.5749999999999999556
info system
info system
print "$(x[20])"
29.925000000000000711
print "$(y[20])"
1.5749999999999999556
print "$(z[20])"
1.5749999999999999556
info system
info system
set atom 20 x 29.924999920329448
Setting atom values ...
  1 settings made for x
set atom 20 y 1.5750000489479845
Setting atom values ...
  1 settings made for y
set atom 20 z 1.575000117582274
Setting atom values ...
  1 settings made for z
info system
info system
print "$(x[21])"
0
print "$(y[21])"
3.1499999999999999112
print "$(z[21])"
0
info system
info system
print "$(x[21])"
0
print "$(y[21])"
3.1499999999999999112
print "$(z[21])"
0
info system
info system
set atom 21 x 8.273622759800245e-08
Setting atom values ...
  1 settings made for x
set atom 21 y 3.1499999842751216
Setting atom values ...
  1 settings made for y
set atom 21 z -6.763865892527096e-08
Setting atom values ...
  1 settings made for z
info system
info system
print "$(x[22])"
1.5749999999999999556
print "$(y[22])"
4.7249999999999996447
print "$(z[22])"
1.5749999999999999556
info system
info system
print "$(x[22])"
1.5749999999999999556
print "$(y[22])"
4.7249999999999996447
print "$(z[22])"
1.5749999999999999556
info system
info system
set atom 22 x 1.5749998417704412
Setting atom values ...
  1 settings made for x
set atom 22 y 4.7249999171761115
Setting atom values ...
  1 settings made for y
set atom 22 z 1.5749998644804433
Setting atom values ...
  1 settings made for z
info system
info system
print "$(x[23])"
3.1499999999999999112
print "$(y[23])"
3.1499999999999999112
print "$(z[23])"
0
info system
info system
print "$(x[23])"
3.1499999999999999112
print "$(y[23])"
3.1499999999999999112
print "$(z[23])"
0
info system
info system
set atom 23 x 3.1499999703559958
Setting atom values ...
  1 settings made for x
set atom 23 y 3.149999847611456
Setting atom values ...
  1 settings made for y
set atom 23 z -4.8569887846232426e-08
Setting atom values ...
  1 settings made for z
info system
info system
print "$(x[24])"
4.7249999999999996447
print "$(y[24])"
4.7249999999999996447
print "$(z[24])"
1.5749999999999999556
info system
info system
print "$(x[24])"
4.7249999999999996447
print "$(y[24])"
4.7249999999999996447
print "$(z[24])"
1.5749999999999999556
info system
info system
set atom 24 x 4.72500019152754
Setting atom values ...
  1 settings made for x
set atom 24 y 4.725000174768496
Setting atom values ...
  1 settings made for y
set atom 24 z 1.5749998144590054
Setting atom values ...
  1 settings made for z
info system
info system
print "$(x[25])"
6.2999999999999998224
print "$(y[25])"
3.1499999999999999112
print "$(z[25])"
0
info system
info system
print "$(x[25])"
6.2999999999999998224
print "$(y[25])"
3.1499999999999999112
print "$(z[25])"
0
info system
info system
set atom 25 x 6.299999849980823
Setting atom values ...
  1 settings made for x
set atom 25 y 3.1499999225645037
Setting atom values ...
  1 settings made for y
set atom 25 z -2.80620161679147e-07
Setting atom values ...
  1 settings made for z
info system
info system
print "$(x[26])"
7.875
print "$(y[26])"
4.7249999999999996447
print "$(z[26])"
1.5749999999999999556
info system
info system
print "$(x[26])"
7.875
print "$(y[26])"
4.7249999999999996447
print "$(z[26])"
1.5749999999999999556
info system
info system
set atom 26 x 7.874999859194277
Setting atom values ...
  1 settings made for x
set atom 26 y 4.724999786926057
Setting atom values ...
  1 settings made for y
set atom 26 z 1.575000275153452
Setting atom values ...
  1 settings made for z
info system
info system
print "$(x[27])"
9.4499999999999992895
print "$(y[27])"
3.1499999999999999112
print "$(z[27])"
0
info system
info system
print "$(x[27])"
9.4499999999999992895
print "$(y[27])"
3.1499999999999999112
print "$(z[27])"
0
info system
info system
set atom 27 x 9.449999673766863
Setting atom values ...
  1 settings made for x
set atom 27 y 3.1500002059680297
Setting atom values ...
  1 settings made for y
set atom 27 z 7.976244602594687e-08
Setting atom values ...
  1 settings made for z
info system
info system
print "$(x[28])"
11.025000000000000355
print "$(y[28])"
4.7249999999999996447
print "$(z[28])"
1.5749999999999999556
info system
info system
print "$(x[28])"
11.025000000000000355
print "$(y[28])"
4.7249999999999996447
print "$(z[28])"
1.5749999999999999556
info system
info system
set atom 28 x 11.024999787423278
Setting atom values ...
  1 settings made for x
set atom 28 y 4.725000343394699
Setting atom values ...
  1 settings made for y
set atom 28 z 1.5749997862468288
Setting atom values ...
  1 settings made for z
info system
info system
print "$(x[29])"
12.599999999999999645
print "$(y[29])"
3.1499999999999999112
print "$(z[29])"
0
info system
info system
print "$(x[29])"
12.599999999999999645
print "$(y[29])"
3.1499999999999999112
print "$(z[29])"
0
info system
info system
set atom 29 x 12.600000355554911
Setting atom values ...
  1 settings made for x
set atom 29 y 3.150000176963446
Setting atom values ...
  1 settings made for y
set atom 29 z -3.2628054793692634e-07
Setting atom values ...
  1 settings made for z
info system
info system
print "$(x[30])"
14.174999999999998934
print "$(y[30])"
4.7249999999999996447
print "$(z[30])"
1.5749999999999999556
info system
info system
print "$(x[30])"
14.174999999999998934
print "$(y[30])"
4.7249999999999996447
print "$(z[30])"
1.5749999999999999556
info system
info system
set atom 30 x 14.174999533320689
Setting atom values ...
  1 settings made for x
set atom 30 y 4.725000173516068
Setting atom values ...
  1 settings made for y
set atom 30 z 1.5749997873294277
Setting atom values ...
  1 settings made for z
info system
info system
print "$(x[31])"
15.75
print "$(y[31])"
3.1499999999999999112
print "$(z[31])"
0
info system
info system
print "$(x[31])"
15.75
print "$(y[31])"
3.1499999999999999112
print "$(z[31])"
0
info system
info system
set atom 31 x 15.750000344703185
Setting atom values ...
  1 settings made for x
set atom 31 y 3.1499999632208
Setting atom values ...
  1 settings made for y
set atom 31 z -2.9667667300908383e-08
Setting atom values ...
  1 settings made for z
info system
info system
print "$(x[32])"
17.324999999999999289
print "$(y[32])"
4.7249999999999996447
print "$(z[32])"
1.5749999999999999556
info system
info system
print "$(x[32])"
17.324999999999999289
print "$(y[32])"
4.7249999999999996447
print "$(z[32])"
1.5749999999999999556
info system
info system
set atom 32 x 17.324999734266147
Setting atom values ...
  1 settings made for x
set atom 32 y 4.724999551764007
Setting atom values ...
  1 settings made for y
set atom 32 z 1.5750004637055017
Setting atom values ...
  1 settings made for z
info system
info system
print "$(x[33])"
18.899999999999998579
print "$(y[33])"
3.1499999999999999112
print "$(z[33])"
0
info system
info system
print "$(x[33])"
18.899999999999998579
print "$(y[33])"
3.1499999999999999112
print "$(z[33])"
0
info system
info system
set atom 33 x 18.90000023288233
Setting atom values ...
  1 settings made for x
set atom 33 y 3.150000376839253
Setting atom values ...
  1 settings made for y
set atom 33 z -3.728055312217335e-07
Setting atom values ...
  1 settings made for z
info system
info system
print "$(x[34])"
20.474999999999997868
print "$(y[34])"
4.7249999999999996447
print "$(z[34])"
1.5749999999999999556
info system
info system
print "$(x[34])"
20.474999999999997868
print "$(y[34])"
4.7249999999999996447
print "$(z[34])"
1.5749999999999999556
info system
info system
set atom 34 x 20.47499949823191
Setting atom values ...
  1 settings made for x
set atom 34 y 4.725000298887667
Setting atom values ...
  1 settings made for y
set atom 34 z 1.5750001436115357
Setting atom values ...
  1 settings made for z
info system
info system
print "$(x[35])"
22.050000000000000711
print "$(y[35])"
3.1499999999999999112
print "$(z[35])"
0
info system
info system
print "$(x[35])"
22.050000000000000711
print "$(y[35])"
3.1499999999999999112
print "$(z[35])"
0
info system
info system
set atom 35 x 22.049999548089488
Setting atom values ...
  1 settings made for x
set atom 35 y 3.149999462308049
Setting atom values ...
  1 settings made for y
set atom 35 z -3.8259097809674184e-07
Setting atom values ...
  1 settings made for z
info system
info system
print "$(x[36])"
23.625
print "$(y[36])"
4.7249999999999996447
print "$(z[36])"
1.5749999999999999556
info system
info system
print "$(x[36])"
23.625
print "$(y[36])"
4.7249999999999996447
print "$(z[36])"
1.5749999999999999556
info system
info system
set atom 36 x 23.625000454868303
Setting atom values ...
  1 settings made for x
set atom 36 y 4.724999458950019
Setting atom values ...
  1 settings made for y
set atom 36 z 1.5749994265340177
Setting atom values ...
  1 settings made for z
info system
info system
print "$(x[37])"
25.199999999999999289
print "$(y[37])"
3.1499999999999999112
print "$(z[37])"
0
info system
info system
print "$(x[37])"
25.199999999999999289
print "$(y[37])"
3.1499999999999999112
print "$(z[37])"
0
info system
info system
set atom 37 x 25.199999558656483
Setting atom values ...
  1 settings made for x
set atom 37 y 3.1500000603391216
Setting atom values ...
  1 settings made for y
set atom 37 z 3.7473814185335696e-07
Setting atom values ...
  1 settings made for z
info system
info system
print "$(x[38])"
26.774999999999998579
print "$(y[38])"
4.7249999999999996447
print "$(z[38])"
1.5749999999999999556
info system
info system
print "$(x[38])"
26.774999999999998579
print "$(y[38])"
4.7249999999999996447
print "$(z[38])"
1.5749999999999999556
info system
info system
set atom 38 x 26.77500041324529
Setting atom values ...
  1 settings made for x
set atom 38 y 4.725000528641265
Setting atom values ...
  1 settings made for y
set atom 38 z 1.5750000149850023
Setting atom values ...
  1 settings made for z
info system
info system
print "$(x[39])"
28.349999999999997868
print "$(y[39])"
3.1499999999999999112
print "$(z[39])"
0
info system
info system
print "$(x[39])"
28.349999999999997868
print "$(y[39])"
3.1499999999999999112
print "$(z[39])"
0
info system
info system
set atom 39 x 28.35000048216323
Setting atom values ...
  1 settings made for x
set atom 39 y 3.1500000605797713
Setting atom values ...
  1 settings made for y
set atom 39 z -3.276850754011534e-08
Setting atom values ...
  1 settings made for z
info system
info system
print "$(x[40])"
29.925000000000000711
print "$(y[40])"
4.7249999999999996447
print "$(z[40])"
1.5749999999999999556
info system
info system
print "$(x[40])"
29.925000000000000711
print "$(y[40])"
4.7249999999999996447
print "$(z[40])"
1.5749999999999999556
info system
info system
set atom 40 x 29.92500045487238
Setting atom values ...
  1 settings made for x
set atom 40 y 4.7249999047001126
Setting atom values ...
  1 settings made for y
set atom 40 z 1.5750003267240587
Setting atom values ...
  1 settings made for z
info system
info system
print "$(x[41])"
0
print "$(y[41])"
6.2999999999999998224
print "$(z[41])"
0
info system
info system
print "$(x[41])"
0
print "$(y[41])"
6.2999999999999998224
print "$(z[41])"
0
info system
info system
set atom 41 x -3.5247116925898253e-07
Setting atom values ...
  1 settings made for x
set atom 41 y 6.299999465524918
Setting atom values ...
  1 settings made for y
set atom 41 z -3.551022730145586e-07
Setting atom values ...
  1 settings made for z
info system
info system
print "$(x[42])"
1.5749999999999999556
print "$(y[42])"
7.875
print "$(z[42])"
1.5749999999999999556
info system
info system
print "$(x[42])"
1.5749999999999999556
print "$(y[42])"
7.875
print "$(z[42])"
1.5749999999999999556
info system
info system
set atom 42 x 1.5749996832500637
Setting atom values ...
  1 settings made for x
set atom 42 y 7.874999920361369
Setting atom values ...
  1 settings made for y
set atom 42 z 1.5750003204000418
Setting atom values ...
  1 settings made for z
info system
info system
print "$(x[43])"
3.1499999999999999112
print "$(y[43])"
6.2999999999999998224
print "$(z[43])"
0
info system
info system
print "$(x[43])"
3.1499999999999999112
print "$(y[43])"
6.2999999999999998224
print "$(z[43])"
0
info system
info system
set atom 43 x 3.149999317625745
Setting atom values ...
  1 settings made for x
set atom 43 y 6.299999811327574
Setting atom values ...
  1 settings made for y
set atom 43 z 1.885553012244291e-07
Setting atom values ...
  1 settings made for z
info system
info system
print "$(x[44])"
4.7249999999999996447
print "$(y[44])"
7.875
print "$(z[44])"
1.5749999999999999556
info system
info system
print "$(x[44])"
4.7249999999999996447
print "$(y[44])"
7.875
print "$(z[44])"
1.5749999999999999556
info system
info system
set atom 44 x 4.72500037397893
Setting atom values ...
  1 settings made for x
set atom 44 y 7.874999304252626
Setting atom values ...
  1 settings made for y
set atom 44 z 1.5749998118509794
Setting atom values ...
  1 settings made for z
info system
info system
print "$(x[45])"
6.2999999999999998224
print "$(y[45])"
6.2999999999999998224
print "$(z[45])"
0
info system
info system
print "$(x[45])"
6.2999999999999998224
print "$(y[45])"
6.2999999999999998224
print "$(z[45])"
0
info system
info system
set atom 45 x 6.300000677378943
Setting atom values ...
  1 settings made for x
set atom 45 y 6.300000370164849
Setting atom values ...
  1 settings made for y
set atom 45 z 4.7571350690400574e-07
Setting atom values ...
  1 settings made for z
info system
info system
print "$(x[46])"
7.875
print "$(y[46])"
7.875
print "$(z[46])"
1.5749999999999999556
info system
info system
print "$(x[46])"
7.875
print "$(y[46])"
7.875
print "$(z[46])"
1.5749999999999999556
info system
info system
set atom 46 x 7.875000190887735
Setting atom values ...
  1 settings made for x
set atom 46 y 7.874999778931935
Setting atom values ...
  1 settings made for y
set atom 46 z 1.5750002736512871
Setting atom values ...
  1 settings made for z
info system
info system
print "$(x[47])"
9.4499999999999992895
print "$(y[47])"
6.2999999999999998224
print "$(z[47])"
0
info system
info system
print "$(x[47])"
9.4499999999999992895
print "$(y[47])"
6.2999999999999998224
print "$(z[47])"
0
info system
info system
set atom 47 x 9.450000111492589
Setting atom values ...
  1 settings made for x
set atom 47 y 6.2999999413608165
Setting atom values ...
  1 settings made for y
set atom 47 z -5.96204330118706e-07
Setting atom values ...
  1 settings made for z
info system
info system
print "$(x[48])"
11.025000000000000355
print "$(y[48])"
7.875
print "$(z[48])"
1.5749999999999999556
info system
info system
print "$(x[48])"
11.025000000000000355
print "$(y[48])"
7.875
print "$(z[48])"
1.5749999999999999556
info system
info system
set atom 48 x 11.025000386889461
Setting atom values ...
  1 settings made for x
set atom 48 y 7.875000034426724
Setting atom values ...
  1 settings made for y
set atom 48 z 1.574999592778933
Setting atom values ...
  1 settings made for z
info system
info system
print "$(x[49])"
12.599999999999999645
print "$(y[49])"
6.2999999999999998224
print "$(z[49])"
0
info system
info system
print "$(x[49])"
12.599999999999999645
print "$(y[49])"
6.2999999999999998224
print "$(z[49])"
0
info system
info system
set atom 49 x 12.599999593062833
Setting atom values ...
  1 settings made for x
set atom 49 y 6.30000019494013
Setting atom values ...
  1 settings made for y
set atom 49 z 2.2148038069614345e-07
Setting atom values ...
  1 settings made for z
info system
info system
print "$(x[50])"
14.174999999999998934
print "$(y[50])"
7.875
print "$(z[50])"
1.5749999999999999556
info system
info system
print "$(x[50])"
14.174999999999998934
print "$(y[50])"
7.875
print "$(z[50])"
1.5749999999999999556
info system
info system
set atom 50 x 14.174999829656986
Setting atom values ...
  1 settings made for x
set atom 50 y 7.875000525083721
Setting atom values ...
  1 settings made for y
set atom 50 z 1.5750006031674888
Setting atom values ...
  1 settings made for z
info system
info system
print "$(x[51])"
15.75
print "$(y[51])"
6.2999999999999998224
print "$(z[51])"
0
info system
info system
print "$(x[51])"
15.75
print "$(y[51])"
6.2999999999999998224
print "$(z[51])"
0
info system
info system
set atom 51 x 15.749999276096284
Setting atom values ...
  1 settings made for x
set atom 51 y 6.300000387401639
Setting atom values ...
  1 settings made for y
set atom 51 z 9.476742639164194e-08
Setting atom values ...
  1 settings made for z
info system
info system
print "$(x[52])"
17.324999999999999289
print "$(y[52])"
7.875
print "$(z[52])"
1.5749999999999999556
info system
info system
print "$(x[52])"
17.324999999999999289
print "$(y[52])"
7.875
print "$(z[52])"
1.5749999999999999556
info system
info system
set atom 52 x 17.325000652383306
Setting atom values ...
  1 settings made for x
set atom 52 y 7.875000634912271
Setting atom values ...
  1 settings made for y
set atom 52 z 1.5749995002771735
Setting atom values ...
  1 settings made for z
info system
info system
print "$(x[53])"
18.899999999999998579
print "$(y[53])"
6.2999999999999998224
print "$(z[53])"
0
info system
info system
print "$(x[53])"
18.899999999999998579
print "$(y[53])"
6.2999999999999998224
print "$(z[53])"
0
info system
info system
set atom 53 x 18.900000506885302
Setting atom values ...
  1 settings made for x
set atom 53 y 6.299999971518865
Setting atom values ...
  1 settings made for y
set atom 53 z 3.787399375435485e-07
Setting atom values ...
  1 settings made for z
info system
info system
print "$(x[54])"
20.474999999999997868
print "$(y[54])"
7.875
print "$(z[54])"
1.5749999999999999556
info system
info system
print "$(x[54])"
20.474999999999997868
print "$(y[54])"
7.875
print "$(z[54])"
1.5749999999999999556
info system
info system
set atom 54 x 20.47499995297376
Setting atom values ...
  1 settings made for x
set atom 54 y 7.875000207463346
Setting atom values ...
  1 settings made for y
set atom 54 z 1.5749998218950498
Setting atom values ...
  1 settings made for z
info system
info system
print "$(x[55])"
22.050000000000000711
print "$(y[55])"
6.2999999999999998224
print "$(z[55])"
0
info system
info system
print "$(x[55])"
22.050000000000000711
print "$(y[55])"
6.2999999999999998224
print "$(z[55])"
0
info system
info system
set atom 55 x 22.049999776503586
Setting atom values ...
  1 settings made for x
set atom 55 y 6.299999950291273
Setting atom values ...
  1 settings made for y
set atom 55 z -4.006950822460652e-07
Setting atom values ...
  1 settings made for z
info system
info system
print "$(x[56])"
23.625
print "$(y[56])"
7.875
print "$(z[56])"
1.5749999999999999556
info system
info system
print "$(x[56])"
23.625
print "$(y[56])"
7.875
print "$(z[56])"
1.5749999999999999556
info system
info system
set atom 56 x 23.62499971740108
Setting atom values ...
  1 settings made for x
set atom 56 y 7.874999586710141
Setting atom values ...
  1 settings made for y
set atom 56 z 1.5749997824618642
Setting atom values ...
  1 settings made for z
info system
info system
print "$(x[57])"
25.199999999999999289
print "$(y[57])"
6.2999999999999998224
print "$(z[57])"
0
info system
info system
print "$(x[57])"
25.199999999999999289
print "$(y[57])"
6.2999999999999998224
print "$(z[57])"
0
info system
info system
set atom 57 x 25.200000488351264
Setting atom values ...
  1 settings made for x
set atom 57 y 6.300000536646654
Setting atom values ...
  1 settings made for y
set atom 57 z 1.8663455539461333e-07
Setting atom values ...
  1 settings made for z
info system
info system
print "$(x[58])"
26.774999999999998579
print "$(y[58])"
7.875
print "$(z[58])"
1.5749999999999999556
info system
info system
print "$(x[58])"
26.774999999999998579
print "$(y[58])"
7.875
print "$(z[58])"
1.5749999999999999556
info system
info system
set atom 58 x 26.774999713156934
Setting atom values ...
  1 settings made for x
set atom 58 y 7.875000231160103
Setting atom values ...
  1 settings made for y
set atom 58 z 1.5749996521780807
Setting atom values ...
  1 settings made for z
info system
info system
print "$(x[59])"
28.349999999999997868
print "$(y[59])"
6.2999999999999998224
print "$(z[59])"
0
info system
info system
print "$(x[59])"
28.349999999999997868
print "$(y[59])"
6.2999999999999998224
print "$(z[59])"
0
info system
info system
set atom 59 x 28.34999975044902
Setting atom values ...
  1 settings made for x
set atom 59 y 6.29999990491374
Setting atom values ...
  1 settings made for y
set atom 59 z 1.5888511334950202e-07
Setting atom values ...
  1 settings made for z
info system
info system
print "$(x[60])"
29.925000000000000711
print "$(y[60])"
7.875
print "$(z[60])"
1.5749999999999999556
info system
info system
print "$(x[60])"
29.925000000000000711
print "$(y[60])"
7.875
print "$(z[60])"
1.5749999999999999556
info system
info system
set atom 60 x 29.925000353962304
Setting atom values ...
  1 settings made for x
set atom 60 y 7.874999615321705
Setting atom values ...
  1 settings made for y
set atom 60 z 1.57500024339913
Setting atom values ...
  1 settings made for z
info system
info system
print "$(x[61])"
0
print "$(y[61])"
9.4499999999999992895
print "$(z[61])"
0
info system
info system
print "$(x[61])"
0
print "$(y[61])"
9.4499999999999992895
print "$(z[61])"
0
info system
info system
set atom 61 x 3.71343590455711e-07
Setting atom values ...
  1 settings made for x
set atom 61 y 9.450000241516076
Setting atom values ...
  1 settings made for y
set atom 61 z -2.635449469289216e-07
Setting atom values ...
  1 settings made for z
info system
info system
print "$(x[62])"
1.5749999999999999556
print "$(y[62])"
11.025000000000000355
print "$(z[62])"
1.5749999999999999556
info system
info system
print "$(x[62])"
1.5749999999999999556
print "$(y[62])"
11.025000000000000355
print "$(z[62])"
1.5749999999999999556
info system
info system
set atom 62 x 1.5749996732376654
Setting atom values ...
  1 settings made for x
set atom 62 y 11.02500048104643
Setting atom values ...
  1 settings made for y
set atom 62 z 1.575000250247792
Setting atom values ...
  1 settings made for z
info system
info system
print "$(x[63])"
3.1499999999999999112
print "$(y[63])"
9.4499999999999992895
print "$(z[63])"
0
info system
info system
print "$(x[63])"
3.1499999999999999112
print "$(y[63])"
9.4499999999999992895
print "$(z[63])"
0
info system
info system
set atom 63 x 3.150000012903428
Setting atom values ...
  1 settings made for x
set atom 63 y 9.450000403173997
Setting atom values ...
  1 settings made for y
set atom 63 z -2.507107528460382e-07
Setting atom values ...
  1 settings made for z
info system
info system
print "$(x[64])"
4.7249999999999996447
print "$(y[64])"
11.025000000000000355
print "$(z[64])"
1.5749999999999999556
info system
info system
print "$(x[64])"
4.7249999999999996447
print "$(y[64])"
11.025000000000000355
print "$(z[64])"
1.5749999999999999556
info system
info system
set atom 64 x 4.724999619916708
Setting atom values ...
  1 settings made for x
set atom 64 y 11.024999991968713
Setting atom values ...
  1 settings made for y
set atom 64 z 1.5749997793473154
Setting atom values ...
  1 settings made for z
info system
info system
print "$(x[65])"
6.2999999999999998224
print "$(y[65])"
9.4499999999999992895
print "$(z[65])"
0
info system
info system
print "$(x[65])"
6.2999999999999998224
print "$(y[65])"
9.4499999999999992895
print "$(z[65])"
0
info system
info system
set atom 65 x 6.299999845884037
Setting atom values ...
  1 settings made for x
set atom 65 y 9.450000034420219
Setting atom values ...
  1 settings made for y
set atom 65 z 2.359119239945837e-07
Setting atom values ...
  1 settings made for z
info system
info system
print "$(x[66])"
7.875
print "$(y[66])"
11.025000000000000355
print "$(z[66])"
1.5749999999999999556
info system
info system
print "$(x[66])"
7.875
print "$(y[66])"
11.025000000000000355
print "$(z[66])"
1.5749999999999999556
info system
info system
set atom 66 x 7.875000254979113
Setting atom values ...
  1 settings made for x
set atom 66 y 11.025000009751839
Setting atom values ...
  1 settings made for y
set atom 66 z 1.5749999118168352
Setting atom values ...
  1 settings made for z
info system
info system
print "$(x[67])"
9.4499999999999992895
print "$(y[67])"
9.4499999999999992895
print "$(z[67])"
0
info system
info system
print "$(x[67])"
9.4499999999999992895
print "$(y[67])"
9.4499999999999992895
print "$(z[67])"
0
info system
info system
set atom 67 x 9.450000091885626
Setting atom values ...
  1 settings made for x
set atom 67 y 9.449999963613687
Setting atom values ...
  1 settings made for y
set atom 67 z -2.8526486777520612e-08
Setting atom values ...
  1 settings made for z
info system
info system
print "$(x[68])"
11.025000000000000355
print "$(y[68])"
11.025000000000000355
print "$(z[68])"
1.5749999999999999556
info system
info system
print "$(x[68])"
11.025000000000000355
print "$(y[68])"
11.025000000000000355
print "$(z[68])"
1.5749999999999999556
info system
info system
set atom 68 x 11.024999972477584
Setting atom values ...
  1 settings made for x
set atom 68 y 11.024999891131134
Setting atom values ...
  1 settings made for y
set atom 68 z 1.575000168504858
Setting atom values ...
  1 settings made for z
info system
info system
print "$(x[69])"
12.599999999999999645
print "$(y[69])"
9.4499999999999992895
print "$(z[69])"
0
info system
info system
print "$(x[69])"
12.599999999999999645
print "$(y[69])"
9.4499999999999992895
print "$(z[69])"
0
info system
info system
set atom 69 x 12.599999856858423
Setting atom values ...
  1 settings made for x
set atom 69 y 9.449999987083833
Setting atom values ...
  1 settings made for y
set atom 69 z 1.3305752354664414e-07
Setting atom values ...
  1 settings made for z
info system
info system
print "$(x[70])"
14.174999999999998934
print "$(y[70])"
11.025000000000000355
print "$(z[70])"
1.5749999999999999556
info system
info system
print "$(x[70])"
14.174999999999998934
print "$(y[70])"
11.025000000000000355
print "$(z[70])"
1.5749999999999999556
info system
info system
set atom 70 x 14.174999809210618
Setting atom values ...
  1 settings made for x
set atom 70 y 11.025000124907098
Setting atom values ...
  1 settings made for y
set atom 70 z 1.574999965979328
Setting atom values ...
  1 settings made for z
info system
info system
print "$(x[71])"
15.75
print "$(y[71])"
9.4499999999999992895
print "$(z[71])"
0
info system
info system
print "$(x[71])"
15.75
print "$(y[71])"
9.4499999999999992895
print "$(z[71])"
0
info system
info system
set atom 71 x 15.750000124836731
Setting atom values ...
  1 settings made for x
set atom 71 y 9.450000109576377
Setting atom values ...
  1 settings made for y
set atom 71 z -1.2867968302380173e-07
Setting atom values ...
  1 settings made for z
info system
info system
print "$(x[72])"
17.324999999999999289
print "$(y[72])"
11.025000000000000355
print "$(z[72])"
1.5749999999999999556
info system
info system
print "$(x[72])"
17.324999999999999289
print "$(y[72])"
11.025000000000000355
print "$(z[72])"
1.5749999999999999556
info system
info system
set atom 72 x 17.324999959720706
Setting atom values ...
  1 settings made for x
set atom 72 y 11.024999841496312
Setting atom values ...
  1 settings made for y
set atom 72 z 1.5749998491089323
Setting atom values ...
  1 settings made for z
info system
info system
print "$(x[73])"
18.899999999999998579
print "$(y[73])"
9.4499999999999992895
print "$(z[73])"
0
info system
info system
print "$(x[73])"
18.899999999999998579
print "$(y[73])"
9.4499999999999992895
print "$(z[73])"
0
info system
info system
set atom 73 x 18.900000015653667
Setting atom values ...
  1 settings made for x
set atom 73 y 9.44999988077709
Setting atom values ...
  1 settings made for y
set atom 73 z 5.320984964684943e-08
Setting atom values ...
  1 settings made for z
info system
info system
print "$(x[74])"
20.474999999999997868
print "$(y[74])"
11.025000000000000355
print "$(z[74])"
1.5749999999999999556
info system
info system
print "$(x[74])"
20.474999999999997868
print "$(y[74])"
11.025000000000000355
print "$(z[74])"
1.5749999999999999556
info system
info system
set atom 74 x 20.474999900884416
Setting atom values ...
  1 settings made for x
set atom 74 y 11.024999939142187
Setting atom values ...
  1 settings made for y
set atom 74 z 1.5750000068460819
Setting atom values ...
  1 settings made for z
info system
info system
print "$(x[75])"
22.050000000000000711
print "$(y[75])"
9.4499999999999992895
print "$(z[75])"
0
info system
info system
print "$(x[75])"
22.050000000000000711
print "$(y[75])"
9.4499999999999992895
print "$(z[75])"
0
info system
info system
set atom 75 x 22.04999998630537
Setting atom values ...
  1 settings made for x
set atom 75 y 9.450000061745978
Setting atom values ...
  1 settings made for y
set atom 75 z 3.9716259456891097e-08
Setting atom values ...
  1 settings made for z
info system
info system
print "$(x[76])"
23.625
print "$(y[76])"
11.025000000000000355
print "$(z[76])"
1.5749999999999999556
info system
info system
print "$(x[76])"
23.625
print "$(y[76])"
11.025000000000000355
print "$(z[76])"
1.5749999999999999556
info system
info system
set atom 76 x 23.624999983153625
Setting atom values ...
  1 settings made for x
set atom 76 y 11.024999995666825
Setting atom values ...
  1 settings made for y
set atom 76 z 1.5750000810819742
Setting atom values ...
  1 settings made for z
info system
info system
print "$(x[77])"
25.199999999999999289
print "$(y[77])"
9.4499999999999992895
print "$(z[77])"
0
info system
info system
print "$(x[77])"
25.199999999999999289
print "$(y[77])"
9.4499999999999992895
print "$(z[77])"
0
info system
info system
set atom 77 x 25.200000033044468
Setting atom values ...
  1 settings made for x
set atom 77 y 9.450000029831678
Setting atom values ...
  1 settings made for y
set atom 77 z -6.722754004312294e-09
Setting atom values ...
  1 settings made for z
info system
info system
print "$(x[78])"
26.774999999999998579
print "$(y[78])"
11.025000000000000355
print "$(z[78])"
1.5749999999999999556
info system
info system
print "$(x[78])"
26.774999999999998579
print "$(y[78])"
11.025000000000000355
print "$(z[78])"
1.5749999999999999556
info system
info system
set atom 78 x 26.775000030438303
Setting atom values ...
  1 settings made for x
set atom 78 y 11.025000030332333
Setting atom values ...
  1 settings made for y
set atom 78 z 1.5749999918761104
Setting atom values ...
  1 settings made for z
info system
info system
print "$(x[79])"
28.349999999999997868
print "$(y[79])"
9.4499999999999992895
print "$(z[79])"
0
info system
info system
print "$(x[79])"
28.349999999999997868
print "$(y[79])"
9.4499999999999992895
print "$(z[79])"
0
info system
info system
set atom 79 x 28.350000004237604
Setting atom values ...
  1 settings made for x
set atom 79 y 9.449999971353668
Setting atom values ...
  1 settings made for y
set atom 79 z 1.6407124570589815e-09
Setting atom values ...
  1 settings made for z
info system
info system
print "$(x[80])"
29.925000000000000711
print "$(y[80])"
11.025000000000000355
print "$(z[80])"
1.5749999999999999556
info system
info system
print "$(x[80])"
29.925000000000000711
print "$(y[80])"
11.025000000000000355
print "$(z[80])"
1.5749999999999999556
info system
info system
set atom 80 x 29.92499997803869
Setting atom values ...
  1 settings made for x
set atom 80 y 11.025000002507866
Setting atom values ...
  1 settings made for y
set atom 80 z 1.574999977551678
Setting atom values ...
  1 settings made for z
info system
info system
print "$(x[81])"
0
print "$(y[81])"
12.599999999999999645
print "$(z[81])"
0
info system
info system
print "$(x[81])"
0
print "$(y[81])"
12.599999999999999645
print "$(z[81])"
0
info system
info system
set atom 81 x -5.389390156799126e-09
Setting atom values ...
  1 settings made for x
set atom 81 y 12.600000018464106
Setting atom values ...
  1 settings made for y
set atom 81 z 8.195714667819704e-09
Setting atom values ...
  1 settings made for z
info system
info system
print "$(x[82])"
1.5749999999999999556
print "$(y[82])"
14.174999999999998934
print "$(z[82])"
1.5749999999999999556
info system
info system
print "$(x[82])"
1.5749999999999999556
print "$(y[82])"
14.174999999999998934
print "$(z[82])"
1.5749999999999999556
info system
info system
set atom 82 x 1.5749999843419749
Setting atom values ...
  1 settings made for x
set atom 82 y 14.174999982220656
Setting atom values ...
  1 settings made for y
set atom 82 z 1.5749999824845973
Setting atom values ...
  1 settings made for z
info system
info system
print "$(x[83])"
3.1499999999999999112
print "$(y[83])"
12.599999999999999645
print "$(z[83])"
0
info system
info system
print "$(x[83])"
3.1499999999999999112
print "$(y[83])"
12.599999999999999645
print "$(z[83])"
0
info system
info system
set atom 83 x 3.1500000097580956
Setting atom values ...
  1 settings made for x
set atom 83 y 12.600000010488953
Setting atom values ...
  1 settings made for y
set atom 83 z -9.816256992826768e-09
Setting atom values ...
  1 settings made for z
info system
info system
print "$(x[84])"
4.7249999999999996447
print "$(y[84])"
14.174999999999998934
print "$(z[84])"
1.5749999999999999556
info system
info system
print "$(x[84])"
4.7249999999999996447
print "$(y[84])"
14.174999999999998934
print "$(z[84])"
1.5749999999999999556
info system
info system
set atom 84 x 4.724999995107728
Setting atom values ...
  1 settings made for x
set atom 84 y 14.174999992016959
Setting atom values ...
  1 settings made for y
set atom 84 z 1.5750000076497417
Setting atom values ...
  1 settings made for z
info system
info system
print "$(x[85])"
6.2999999999999998224
print "$(y[85])"
12.599999999999999645
print "$(z[85])"
0
info system
info system
print "$(x[85])"
6.2999999999999998224
print "$(y[85])"
12.599999999999999645
print "$(z[85])"
0
info system
info system
set atom 85 x 6.299999997380428
Setting atom values ...
  1 settings made for x
set atom 85 y 12.600000006223489
Setting atom values ...
  1 settings made for y
set atom 85 z 8.475927487323105e-10
Setting atom values ...
  1 settings made for z
info system
info system
print "$(x[86])"
7.875
print "$(y[86])"
14.174999999999998934
print "$(z[86])"
1.5749999999999999556
info system
info system
print "$(x[86])"
7.875
print "$(y[86])"
14.174999999999998934
print "$(z[86])"
1.5749999999999999556
info system
info system
set atom 86 x 7.875000009195585
Setting atom values ...
  1 settings made for x
set atom 86 y 14.175000004123744
Setting atom values ...
  1 settings made for y
set atom 86 z 1.5749999907514656
Setting atom values ...
  1 settings made for z
info system
info system
print "$(x[87])"
9.4499999999999992895
print "$(y[87])"
12.599999999999999645
print "$(z[87])"
0
info system
info system
print "$(x[87])"
9.4499999999999992895
print "$(y[87])"
12.599999999999999645
print "$(z[87])"
0
info system
info system
set atom 87 x 9.450000000858314
Setting atom values ...
  1 settings made for x
set atom 87 y 12.599999999655406
Setting atom values ...
  1 settings made for y
set atom 87 z -3.6200080799677e-09
Setting atom values ...
  1 settings made for z
info system
info system
print "$(x[88])"
11.025000000000000355
print "$(y[88])"
14.174999999999998934
print "$(z[88])"
1.5749999999999999556
info system
info system
print "$(x[88])"
11.025000000000000355
print "$(y[88])"
14.174999999999998934
print "$(z[88])"
1.5749999999999999556
info system
info system
set atom 88 x 11.024999998342686
Setting atom values ...
  1 settings made for x
set atom 88 y 14.175000005764005
Setting atom values ...
  1 settings made for y
set atom 88 z 1.5749999974608035
Setting atom values ...
  1 settings made for z
info system
info system
print "$(x[89])"
12.599999999999999645
print "$(y[89])"
12.599999999999999645
print "$(z[89])"
0
info system
info system
print "$(x[89])"
12.599999999999999645
print "$(y[89])"
12.599999999999999645
print "$(z[89])"
0
info system
info system
set atom 89 x 12.600000001159826
Setting atom values ...
  1 settings made for x
set atom 89 y 12.599999999606863
Setting atom values ...
  1 settings made for y
set atom 89 z -5.438293913674882e-09
Setting atom values ...
  1 settings made for z
info system
info system
print "$(x[90])"
14.174999999999998934
print "$(y[90])"
14.174999999999998934
print "$(z[90])"
1.5749999999999999556
info system
info system
print "$(x[90])"
14.174999999999998934
print "$(y[90])"
14.174999999999998934
print "$(z[90])"
1.5749999999999999556
info system
info system
set atom 90 x 14.174999995879375
Setting atom values ...
  1 settings made for x
set atom 90 y 14.175000005707611
Setting atom values ...
  1 settings made for y
set atom 90 z 1.5749999943055226
Setting atom values ...
  1 settings made for z
info system
info system
print "$(x[91])"
15.75
print "$(y[91])"
12.599999999999999645
print "$(z[91])"
0
info system
info system
print "$(x[91])"
15.75
print "$(y[91])"
12.599999999999999645
print "$(z[91])"
0
info system
info system
set atom 91 x 15.749999989941472
Setting atom values ...
  1 settings made for x
set atom 91 y 12.599999998000635
Setting atom values ...
  1 settings made for y
set atom 91 z 1.1008813682780803e-08
Setting atom values ...
  1 settings made for z
info system
info system
print "$(x[92])"
17.324999999999999289
print "$(y[92])"
14.174999999999998934
print "$(z[92])"
1.5749999999999999556
info system
info system
print "$(x[92])"
17.324999999999999289
print "$(y[92])"
14.174999999999998934
print "$(z[92])"
1.5749999999999999556
info system
info system
set atom 92 x 17.324999988202315
Setting atom values ...
  1 settings made for x
set atom 92 y 14.175000011574292
Setting atom values ...
  1 settings made for y
set atom 92 z 1.5750000079313045
Setting atom values ...
  1 settings made for z
info system
info system
print "$(x[93])"
18.899999999999998579
print "$(y[93])"
12.599999999999999645
print "$(z[93])"
0
info system
info system
print "$(x[93])"
18.899999999999998579
print "$(y[93])"
12.599999999999999645
print "$(z[93])"
0
info system
info system
set atom 93 x 18.900000015134495
Setting atom values ...
  1 settings made for x
set atom 93 y 12.59999998543569
Setting atom values ...
  1 settings made for y
set atom 93 z -4.1728888553596925e-09
Setting atom values ...
  1 settings made for z
info system
info system
print "$(x[94])"
20.474999999999997868
print "$(y[94])"
14.174999999999998934
print "$(z[94])"
1.5749999999999999556
info system
info system
print "$(x[94])"
20.474999999999997868
print "$(y[94])"
14.174999999999998934
print "$(z[94])"
1.5749999999999999556
info system
info system
set atom 94 x 20.474999988851245
Setting atom values ...
  1 settings made for x
set atom 94 y 14.175000003747051
Setting atom values ...
  1 settings made for y
set atom 94 z 1.5750000178529915
Setting atom values ...
  1 settings made for z
info system
info system
print "$(x[95])"
22.050000000000000711
print "$(y[95])"
12.599999999999999645
print "$(z[95])"
0
info system
info system
print "$(x[95])"
22.050000000000000711
print "$(y[95])"
12.599999999999999645
print "$(z[95])"
0
info system
info system
set atom 95 x 22.05000001057418
Setting atom values ...
  1 settings made for x
set atom 95 y 12.600000006510147
Setting atom values ...
  1 settings made for y
set atom 95 z -6.1411367325314434e-09
Setting atom values ...
  1 settings made for z
info system
info system
print "$(x[96])"
23.625
print "$(y[96])"
14.174999999999998934
print "$(z[96])"
1.5749999999999999556
info system
info system
print "$(x[96])"
23.625
print "$(y[96])"
14.174999999999998934
print "$(z[96])"
1.5749999999999999556
info system
info system
set atom 96 x 23.624999996751544
Setting atom values ...
  1 settings made for x
set atom 96 y 14.17499997887206
Setting atom values ...
  1 settings made for y
set atom 96 z 1.5749999874971157
Setting atom values ...
  1 settings made for z
info system
info system
print "$(x[97])"
25.199999999999999289
print "$(y[97])"
12.599999999999999645
print "$(z[97])"
0
info system
info system
print "$(x[97])"
25.199999999999999289
print "$(y[97])"
12.599999999999999645
print "$(z[97])"
0
info system
info system
set atom 97 x 25.19999999200559
Setting atom values ...
  1 settings made for x
set atom 97 y 12.599999985871179
Setting atom values ...
  1 settings made for y
set atom 97 z -4.448158668283805e-08
Setting atom values ...
  1 settings made for z
info system
info system
print "$(x[98])"
26.774999999999998579
print "$(y[98])"
14.174999999999998934
print "$(z[98])"
1.5749999999999999556
info system
info system
print "$(x[98])"
26.774999999999998579
print "$(y[98])"
14.174999999999998934
print "$(z[98])"
1.5749999999999999556
info system
info system
set atom 98 x 26.77500000336667
Setting atom values ...
  1 settings made for x
set atom 98 y 14.174999976768717
Setting atom values ...
  1 settings made for y
set atom 98 z 1.5750000280270648
Setting atom values ...
  1 settings made for z
info system
info system
print "$(x[99])"
28.349999999999997868
print "$(y[99])"
12.599999999999999645
print "$(z[99])"
0
info system
info system
print "$(x[99])"
28.349999999999997868
print "$(y[99])"
12.599999999999999645
print "$(z[99])"
0
info system
info system
set atom 99 x 28.35000003274785
Setting atom values ...
  1 settings made for x
set atom 99 y 12.599999981478055
Setting atom values ...
  1 settings made for y
set atom 99 z -6.022968411899433e-08
Setting atom values ...
  1 settings made for z
info system
info system
print "$(x[100])"
29.925000000000000711
print "$(y[100])"
14.174999999999998934
print "$(z[100])"
1.5749999999999999556
info system
info system
print "$(x[100])"
29.925000000000000711
print "$(y[100])"
14.174999999999998934
print "$(z[100])"
1.5749999999999999556
info system
info system
set atom 100 x 29.92500002418801
Setting atom values ...
  1 settings made for x
set atom 100 y 14.175000065514544
Setting atom values ...
  1 settings made for y
set atom 100 z 1.5750000235866504
Setting atom values ...
  1 settings made for z
info system
info system
print "$(x[101])"
0
print "$(y[101])"
15.75
print "$(z[101])"
0
info system
info system
print "$(x[101])"
0
print "$(y[101])"
15.75
print "$(z[101])"
0
info system
info system
set atom 101 x -7.781806874430986e-08
Setting atom values ...
  1 settings made for x
set atom 101 y 15.750000113099503
Setting atom values ...
  1 settings made for y
set atom 101 z -2.6502312114054553e-08
Setting atom values ...
  1 settings made for z
info system
info system
print "$(x[102])"
1.5749999999999999556
print "$(y[102])"
17.324999999999999289
print "$(z[102])"
1.5749999999999999556
info system
info system
print "$(x[102])"
1.5749999999999999556
print "$(y[102])"
17.324999999999999289
print "$(z[102])"
1.5749999999999999556
info system
info system
set atom 102 x 1.574999904590671
Setting atom values ...
  1 settings made for x
set atom 102 y 17.32500006369769
Setting atom values ...
  1 settings made for y
set atom 102 z 1.5749999626825995
Setting atom values ...
  1 settings made for z
info system
info system
print "$(x[103])"
3.1499999999999999112
print "$(y[103])"
15.75
print "$(z[103])"
0
info system
info system
print "$(x[103])"
3.1499999999999999112
print "$(y[103])"
15.75
print "$(z[103])"
0
info system
info system
set atom 103 x 3.1500000562256814
Setting atom values ...
  1 settings made for x
set atom 103 y 15.750000096513405
Setting atom values ...
  1 settings made for y
set atom 103 z 1.7604892811061318e-07
Setting atom values ...
  1 settings made for z
info system
info system
print "$(x[104])"
4.7249999999999996447
print "$(y[104])"
17.324999999999999289
print "$(z[104])"
1.5749999999999999556
info system
info system
print "$(x[104])"
4.7249999999999996447
print "$(y[104])"
17.324999999999999289
print "$(z[104])"
1.5749999999999999556
info system
info system
set atom 104 x 4.725000112898577
Setting atom values ...
  1 settings made for x
set atom 104 y 17.324999977943495
Setting atom values ...
  1 settings made for y
set atom 104 z 1.5749999147170204
Setting atom values ...
  1 settings made for z
info system
info system
print "$(x[105])"
6.2999999999999998224
print "$(y[105])"
15.75
print "$(z[105])"
0
info system
info system
print "$(x[105])"
6.2999999999999998224
print "$(y[105])"
15.75
print "$(z[105])"
0
info system
info system
set atom 105 x 6.2999998646612285
Setting atom values ...
  1 settings made for x
set atom 105 y 15.750000133014618
Setting atom values ...
  1 settings made for y
set atom 105 z -1.6799673986258018e-07
Setting atom values ...
  1 settings made for z
info system
info system
print "$(x[106])"
7.875
print "$(y[106])"
17.324999999999999289
print "$(z[106])"
1.5749999999999999556
info system
info system
print "$(x[106])"
7.875
print "$(y[106])"
17.324999999999999289
print "$(z[106])"
1.5749999999999999556
info system
info system
set atom 106 x 7.874999807551356
Setting atom values ...
  1 settings made for x
set atom 106 y 17.32499982720068
Setting atom values ...
  1 settings made for y
set atom 106 z 1.5750001030083074
Setting atom values ...
  1 settings made for z
info system
info system
print "$(x[107])"
9.4499999999999992895
print "$(y[107])"
15.75
print "$(z[107])"
0
info system
info system
print "$(x[107])"
9.4499999999999992895
print "$(y[107])"
15.75
print "$(z[107])"
0
info system
info system
set atom 107 x 9.449999766556266
Setting atom values ...
  1 settings made for x
set atom 107 y 15.75000002501875
Setting atom values ...
  1 settings made for y
set atom 107 z -1.4133389105595178e-07
Setting atom values ...
  1 settings made for z
info system
info system
print "$(x[108])"
11.025000000000000355
print "$(y[108])"
17.324999999999999289
print "$(z[108])"
1.5749999999999999556
info system
info system
print "$(x[108])"
11.025000000000000355
print "$(y[108])"
17.324999999999999289
print "$(z[108])"
1.5749999999999999556
info system
info system
set atom 108 x 11.024999973087544
Setting atom values ...
  1 settings made for x
set atom 108 y 17.324999991834066
Setting atom values ...
  1 settings made for y
set atom 108 z 1.575000185758465
Setting atom values ...
  1 settings made for z
info system
info system
print "$(x[109])"
12.599999999999999645
print "$(y[109])"
15.75
print "$(z[109])"
0
info system
info system
print "$(x[109])"
12.599999999999999645
print "$(y[109])"
15.75
print "$(z[109])"
0
info system
info system
set atom 109 x 12.60000004158209
Setting atom values ...
  1 settings made for x
set atom 109 y 15.750000167145686
Setting atom values ...
  1 settings made for y
set atom 109 z -3.004192201926357e-07
Setting atom values ...
  1 settings made for z
info system
info system
print "$(x[110])"
14.174999999999998934
print "$(y[110])"
17.324999999999999289
print "$(z[110])"
1.5749999999999999556
info system
info system
print "$(x[110])"
14.174999999999998934
print "$(y[110])"
17.324999999999999289
print "$(z[110])"
1.5749999999999999556
info system
info system
set atom 110 x 14.174999963329864
Setting atom values ...
  1 settings made for x
set atom 110 y 17.325000117503052
Setting atom values ...
  1 settings made for y
set atom 110 z 1.575000152151202
Setting atom values ...
  1 settings made for z
info system
info system
print "$(x[111])"
15.75
print "$(y[111])"
15.75
print "$(z[111])"
0
info system
info system
print "$(x[111])"
15.75
print "$(y[111])"
15.75
print "$(z[111])"
0
info system
info system
set atom 111 x 15.74999990114279
Setting atom values ...
  1 settings made for x
set atom 111 y 15.750000154421592
Setting atom values ...
  1 settings made for y
set atom 111 z -4.0883613001303064e-07
Setting atom values ...
  1 settings made for z
info system
info system
print "$(x[112])"
17.324999999999999289
print "$(y[112])"
17.324999999999999289
print "$(z[112])"
1.5749999999999999556
info system
info system
print "$(x[112])"
17.324999999999999289
print "$(y[112])"
17.324999999999999289
print "$(z[112])"
1.5749999999999999556
info system
info system
set atom 112 x 17.324999756638803
Setting atom values ...
  1 settings made for x
set atom 112 y 17.324999949330973
Setting atom values ...
  1 settings made for y
set atom 112 z 1.5750000861351814
Setting atom values ...
  1 settings made for z
info system
info system
print "$(x[113])"
18.899999999999998579
print "$(y[113])"
15.75
print "$(z[113])"
0
info system
info system
print "$(x[113])"
18.899999999999998579
print "$(y[113])"
15.75
print "$(z[113])"
0
info system
info system
set atom 113 x 18.90000040744851
Setting atom values ...
  1 settings made for x
set atom 113 y 15.75000006489537
Setting atom values ...
  1 settings made for y
set atom 113 z -4.226111008052847e-07
Setting atom values ...
  1 settings made for z
info system
info system
print "$(x[114])"
20.474999999999997868
print "$(y[114])"
17.324999999999999289
print "$(z[114])"
1.5749999999999999556
info system
info system
print "$(x[114])"
20.474999999999997868
print "$(y[114])"
17.324999999999999289
print "$(z[114])"
1.5749999999999999556
info system
info system
set atom 114 x 20.474999528163472
Setting atom values ...
  1 settings made for x
set atom 114 y 17.325000225451355
Setting atom values ...
  1 settings made for y
set atom 114 z 1.5750004155166748
Setting atom values ...
  1 settings made for z
info system
info system
print "$(x[115])"
22.050000000000000711
print "$(y[115])"
15.75
print "$(z[115])"
0
info system
info system
print "$(x[115])"
22.050000000000000711
print "$(y[115])"
15.75
print "$(z[115])"
0
info system
info system
set atom 115 x 22.0499994785465
Setting atom values ...
  1 settings made for x
set atom 115 y 15.750000091600786
Setting atom values ...
  1 settings made for y
set atom 115 z 4.640928890294508e-07
Setting atom values ...
  1 settings made for z
info system
info system
print "$(x[116])"
23.625
print "$(y[116])"
17.324999999999999289
print "$(z[116])"
1.5749999999999999556
info system
info system
print "$(x[116])"
23.625
print "$(y[116])"
17.324999999999999289
print "$(z[116])"
1.5749999999999999556
info system
info system
set atom 116 x 23.624999467484642
Setting atom values ...
  1 settings made for x
set atom 116 y 17.324999511011278
Setting atom values ...
  1 settings made for y
set atom 116 z 1.5750000345117945
Setting atom values ...
  1 settings made for z
info system
info system
print "$(x[117])"
25.199999999999999289
print "$(y[117])"
15.75
print "$(z[117])"
0
info system
info system
print "$(x[117])"
25.199999999999999289
print "$(y[117])"
15.75
print "$(z[117])"
0
info system
info system
set atom 117 x 25.199999811711315
Setting atom values ...
  1 settings made for x
set atom 117 y 15.749999869030972
Setting atom values ...
  1 settings made for y
set atom 117 z -6.390480571905e-08
Setting atom values ...
  1 settings made for z
info system
info system
print "$(x[118])"
26.774999999999998579
print "$(y[118])"
17.324999999999999289
print "$(z[118])"
1.5749999999999999556
info system
info system
print "$(x[118])"
26.774999999999998579
print "$(y[118])"
17.324999999999999289
print "$(z[118])"
1.5749999999999999556
info system
info system
set atom 118 x 26.775000348238347
Setting atom values ...
  1 settings made for x
set atom 118 y 17.32500029476811
Setting atom values ...
  1 settings made for y
set atom 118 z 1.575000479019293
Setting atom values ...
  1 settings made for z
info system
info system
print "$(x[119])"
28.349999999999997868
print "$(y[119])"
15.75
print "$(z[119])"
0
info system
info system
print "$(x[119])"
28.349999999999997868
print "$(y[119])"
15.75
print "$(z[119])"
0
info system
info system
set atom 119 x 28.349999415479225
Setting atom values ...
  1 settings made for x
set atom 119 y 15.750000002815378
Setting atom values ...
  1 settings made for y
set atom 119 z -4.44585816061322e-08
Setting atom values ...
  1 settings made for z
info system
info system
print "$(x[120])"
29.925000000000000711
print "$(y[120])"
17.324999999999999289
print "$(z[120])"
1.5749999999999999556
info system
info system
print "$(x[120])"
29.925000000000000711
print "$(y[120])"
17.324999999999999289
print "$(z[120])"
1.5749999999999999556
info system
info system
set atom 120 x 29.9250001342712
Setting atom values ...
  1 settings made for x
set atom 120 y 17.32500058561813
Setting atom values ...
  1 settings made for y
set atom 120 z 1.574999702783552
Setting atom values ...
  1 settings made for z
info system
info system
print "$(x[121])"
0
print "$(y[121])"
18.899999999999998579
print "$(z[121])"
0
info system
info system
print "$(x[121])"
0
print "$(y[121])"
18.899999999999998579
print "$(z[121])"
0
info system
info system
set atom 121 x 4.597684049782894e-07
Setting atom values ...
  1 settings made for x
set atom 121 y 18.899999740903244
Setting atom values ...
  1 settings made for y
set atom 121 z -1.3669196029865056e-07
Setting atom values ...
  1 settings made for z
info system
info system
print "$(x[122])"
1.5749999999999999556
print "$(y[122])"
20.474999999999997868
print "$(z[122])"
1.5749999999999999556
info system
info system
print "$(x[122])"
1.5749999999999999556
print "$(y[122])"
20.474999999999997868
print "$(z[122])"
1.5749999999999999556
info system
info system
set atom 122 x 1.5750001774308608
Setting atom values ...
  1 settings made for x
set atom 122 y 20.475000484511558
Setting atom values ...
  1 settings made for y
set atom 122 z 1.5749995388821822
Setting atom values ...
  1 settings made for z
info system
info system
print "$(x[123])"
3.1499999999999999112
print "$(y[123])"
18.899999999999998579
print "$(z[123])"
0
info system
info system
print "$(x[123])"
3.1499999999999999112
print "$(y[123])"
18.899999999999998579
print "$(z[123])"
0
info system
info system
set atom 123 x 3.1500000056917714
Setting atom values ...
  1 settings made for x
set atom 123 y 18.899999814799237
Setting atom values ...
  1 settings made for y
set atom 123 z 8.412550501535471e-08
Setting atom values ...
  1 settings made for z
info system
info system
print "$(x[124])"
4.7249999999999996447
print "$(y[124])"
20.474999999999997868
print "$(z[124])"
1.5749999999999999556
info system
info system
print "$(x[124])"
4.7249999999999996447
print "$(y[124])"
20.474999999999997868
print "$(z[124])"
1.5749999999999999556
info system
info system
set atom 124 x 4.72499942160933
Setting atom values ...
  1 settings made for x
set atom 124 y 20.474999387989268
Setting atom values ...
  1 settings made for y
set atom 124 z 1.5750000514311935
Setting atom values ...
  1 settings made for z
info system
info system
print "$(x[125])"
6.2999999999999998224
print "$(y[125])"
18.899999999999998579
print "$(z[125])"
0
info system
info system
print "$(x[125])"
6.2999999999999998224
print "$(y[125])"
18.899999999999998579
print "$(z[125])"
0
info system
info system
set atom 125 x 6.300000103126232
Setting atom values ...
  1 settings made for x
set atom 125 y 18.900000653815994
Setting atom values ...
  1 settings made for y
set atom 125 z 7.440260983071412e-07
Setting atom values ...
  1 settings made for z
info system
info system
print "$(x[126])"
7.875
print "$(y[126])"
20.474999999999997868
print "$(z[126])"
1.5749999999999999556
info system
info system
print "$(x[126])"
7.875
print "$(y[126])"
20.474999999999997868
print "$(z[126])"
1.5749999999999999556
info system
info system
set atom 126 x 7.875000251678889
Setting atom values ...
  1 settings made for x
set atom 126 y 20.47500065323761
Setting atom values ...
  1 settings made for y
set atom 126 z 1.5749997201512627
Setting atom values ...
  1 settings made for z
info system
info system
print "$(x[127])"
9.4499999999999992895
print "$(y[127])"
18.899999999999998579
print "$(z[127])"
0
info system
info system
print "$(x[127])"
9.4499999999999992895
print "$(y[127])"
18.899999999999998579
print "$(z[127])"
0
info system
info system
set atom 127 x 9.450000017799281
Setting atom values ...
  1 settings made for x
set atom 127 y 18.899999718978687
Setting atom values ...
  1 settings made for y
set atom 127 z 1.1483038383183234e-07
Setting atom values ...
  1 settings made for z
info system
info system
print "$(x[128])"
11.025000000000000355
print "$(y[128])"
20.474999999999997868
print "$(z[128])"
1.5749999999999999556
info system
info system
print "$(x[128])"
11.025000000000000355
print "$(y[128])"
20.474999999999997868
print "$(z[128])"
1.5749999999999999556
info system
info system
set atom 128 x 11.024999480595202
Setting atom values ...
  1 settings made for x
set atom 128 y 20.47500011732584
Setting atom values ...
  1 settings made for y
set atom 128 z 1.5750006195059554
Setting atom values ...
  1 settings made for z
info system
info system
print "$(x[129])"
12.599999999999999645
print "$(y[129])"
18.899999999999998579
print "$(z[129])"
0
info system
info system
print "$(x[129])"
12.599999999999999645
print "$(y[129])"
18.899999999999998579
print "$(z[129])"
0
info system
info system
set atom 129 x 12.599999859523628
Setting atom values ...
  1 settings made for x
set atom 129 y 18.900000441251986
Setting atom values ...
  1 settings made for y
set atom 129 z -7.056593127961077e-07
Setting atom values ...
  1 settings made for z
info system
info system
print "$(x[130])"
14.174999999999998934
print "$(y[130])"
20.474999999999997868
print "$(z[130])"
1.5749999999999999556
info system
info system
print "$(x[130])"
14.174999999999998934
print "$(y[130])"
20.474999999999997868
print "$(z[130])"
1.5749999999999999556
info system
info system
set atom 130 x 14.175000544902375
Setting atom values ...
  1 settings made for x
set atom 130 y 20.47500027237857
Setting atom values ...
  1 settings made for y
set atom 130 z 1.5750000540178242
Setting atom values ...
  1 settings made for z
info system
info system
print "$(x[131])"
15.75
print "$(y[131])"
18.899999999999998579
print "$(z[131])"
0
info system
info system
print "$(x[131])"
15.75
print "$(y[131])"
18.899999999999998579
print "$(z[131])"
0
info system
info system
set atom 131 x 15.750000129888893
Setting atom values ...
  1 settings made for x
set atom 131 y 18.899999473840488
Setting atom values ...
  1 settings made for y
set atom 131 z -3.1461659811607364e-08
Setting atom values ...
  1 settings made for z
info system
info system
print "$(x[132])"
17.324999999999999289
print "$(y[132])"
20.474999999999997868
print "$(z[132])"
1.5749999999999999556
info system
info system
print "$(x[132])"
17.324999999999999289
print "$(y[132])"
20.474999999999997868
print "$(z[132])"
1.5749999999999999556
info system
info system
set atom 132 x 17.32499988909122
Setting atom values ...
  1 settings made for x
set atom 132 y 20.47499976889007
Setting atom values ...
  1 settings made for y
set atom 132 z 1.5749994140614199
Setting atom values ...
  1 settings made for z
info system
info system
print "$(x[133])"
18.899999999999998579
print "$(y[133])"
18.899999999999998579
print "$(z[133])"
0
info system
info system
print "$(x[133])"
18.899999999999998579
print "$(y[133])"
18.899999999999998579
print "$(z[133])"
0
info system
info system
set atom 133 x 18.900000367170307
Setting atom values ...
  1 settings made for x
set atom 133 y 18.899999403672812
Setting atom values ...
  1 settings made for y
set atom 133 z 5.696097399802636e-07
Setting atom values ...
  1 settings made for z
info system
info system
print "$(x[134])"
20.474999999999997868
print "$(y[134])"
20.474999999999997868
print "$(z[134])"
1.5749999999999999556
info system
info system
print "$(x[134])"
20.474999999999997868
print "$(y[134])"
20.474999999999997868
print "$(z[134])"
1.5749999999999999556
info system
info system
set atom 134 x 20.474999634587746
Setting atom values ...
  1 settings made for x
set atom 134 y 20.474999490383773
Setting atom values ...
  1 settings made for y
set atom 134 z 1.5750000683621088
Setting atom values ...
  1 settings made for z
info system
info system
print "$(x[135])"
22.050000000000000711
print "$(y[135])"
18.899999999999998579
print "$(z[135])"
0
info system
info system
print "$(x[135])"
22.050000000000000711
print "$(y[135])"
18.899999999999998579
print "$(z[135])"
0
info system
info system
set atom 135 x 22.049999961801095
Setting atom values ...
  1 settings made for x
set atom 135 y 18.899999605510313
Setting atom values ...
  1 settings made for y
set atom 135 z 1.743145394862832e-07
Setting atom values ...
  1 settings made for z
info system
info system
print "$(x[136])"
23.625
print "$(y[136])"
20.474999999999997868
print "$(z[136])"
1.5749999999999999556
info system
info system
print "$(x[136])"
23.625
print "$(y[136])"
20.474999999999997868
print "$(z[136])"
1.5749999999999999556
info system
info system
set atom 136 x 23.625000517604256
Setting atom values ...
  1 settings made for x
set atom 136 y 20.475000361681907
Setting atom values ...
  1 settings made for y
set atom 136 z 1.575000014297988
Setting atom values ...
  1 settings made for z
info system
info system
print "$(x[137])"
25.199999999999999289
print "$(y[137])"
18.899999999999998579
print "$(z[137])"
0
info system
info system
print "$(x[137])"
25.199999999999999289
print "$(y[137])"
18.899999999999998579
print "$(z[137])"
0
info system
info system
set atom 137 x 25.199999934553347
Setting atom values ...
  1 settings made for x
set atom 137 y 18.89999949132537
Setting atom values ...
  1 settings made for y
set atom 137 z 4.606032301431393e-08
Setting atom values ...
  1 settings made for z
info system
info system
print "$(x[138])"
26.774999999999998579
print "$(y[138])"
20.474999999999997868
print "$(z[138])"
1.5749999999999999556
info system
info system
print "$(x[138])"
26.774999999999998579
print "$(y[138])"
20.474999999999997868
print "$(z[138])"
1.5749999999999999556
info system
info system
set atom 138 x 26.775000200389236
Setting atom values ...
  1 settings made for x
set atom 138 y 20.47499984193068
Setting atom values ...
  1 settings made for y
set atom 138 z 1.5749994628363473
Setting atom values ...
  1 settings made for z
info system
info system
print "$(x[139])"
28.349999999999997868
print "$(y[139])"
18.899999999999998579
print "$(z[139])"
0
info system
info system
print "$(x[139])"
28.349999999999997868
print "$(y[139])"
18.899999999999998579
print "$(z[139])"
0
info system
info system
set atom 139 x 28.349999944783015
Setting atom values ...
  1 settings made for x
set atom 139 y 18.899999960535627
Setting atom values ...
  1 settings made for y
set atom 139 z 5.357855911339991e-07
Setting atom values ...
  1 settings made for z
info system
info system
print "$(x[140])"
29.925000000000000711
print "$(y[140])"
20.474999999999997868
print "$(z[140])"
1.5749999999999999556
info system
info system
print "$(x[140])"
29.925000000000000711
print "$(y[140])"
20.474999999999997868
print "$(z[140])"
1.5749999999999999556
info system
info system
set atom 140 x 29.92500012761626
Setting atom values ...
  1 settings made for x
set atom 140 y 20.47499999350359
Setting atom values ...
  1 settings made for y
set atom 140 z 1.5750002604322657
Setting atom values ...
  1 settings made for z
info system
info system
print "$(x[141])"
0
print "$(y[141])"
22.050000000000000711
print "$(z[141])"
0
info system
info system
print "$(x[141])"
0
print "$(y[141])"
22.050000000000000711
print "$(z[141])"
0
info system
info system
set atom 141 x -9.498884481106923e-09
Setting atom values ...
  1 settings made for x
set atom 141 y 22.049999483068955
Setting atom values ...
  1 settings made for y
set atom 141 z 9.963496188792608e-08
Setting atom values ...
  1 settings made for z
info system
info system
print "$(x[142])"
1.5749999999999999556
print "$(y[142])"
23.625
print "$(z[142])"
1.5749999999999999556
info system
info system
print "$(x[142])"
1.5749999999999999556
print "$(y[142])"
23.625
print "$(z[142])"
1.5749999999999999556
info system
info system
set atom 142 x 1.574999623669052
Setting atom values ...
  1 settings made for x
set atom 142 y 23.625000491059073
Setting atom values ...
  1 settings made for y
set atom 142 z 1.5749999193500852
Setting atom values ...
  1 settings made for z
info system
info system
print "$(x[143])"
3.1499999999999999112
print "$(y[143])"
22.050000000000000711
print "$(z[143])"
0
info system
info system
print "$(x[143])"
3.1499999999999999112
print "$(y[143])"
22.050000000000000711
print "$(z[143])"
0
info system
info system
set atom 143 x 3.149999913123122
Setting atom values ...
  1 settings made for x
set atom 143 y 22.04999986165279
Setting atom values ...
  1 settings made for y
set atom 143 z 3.0352411669605705e-08
Setting atom values ...
  1 settings made for z
info system
info system
print "$(x[144])"
4.7249999999999996447
print "$(y[144])"
23.625
print "$(z[144])"
1.5749999999999999556
info system
info system
print "$(x[144])"
4.7249999999999996447
print "$(y[144])"
23.625
print "$(z[144])"
1.5749999999999999556
info system
info system
set atom 144 x 4.724999828352397
Setting atom values ...
  1 settings made for x
set atom 144 y 23.624999486781288
Setting atom values ...
  1 settings made for y
set atom 144 z 1.5750001183132543
Setting atom values ...
  1 settings made for z
info system
info system
print "$(x[145])"
6.2999999999999998224
print "$(y[145])"
22.050000000000000711
print "$(z[145])"
0
info system
info system
print "$(x[145])"
6.2999999999999998224
print "$(y[145])"
22.050000000000000711
print "$(z[145])"
0
info system
info system
set atom 145 x 6.299999897426906
Setting atom values ...
  1 settings made for x
set atom 145 y 22.050000060061812
Setting atom values ...
  1 settings made for y
set atom 145 z -3.875715803722144e-07
Setting atom values ...
  1 settings made for z
info system
info system
print "$(x[146])"
7.875
print "$(y[146])"
23.625
print "$(z[146])"
1.5749999999999999556
info system
info system
print "$(x[146])"
7.875
print "$(y[146])"
23.625
print "$(z[146])"
1.5749999999999999556
info system
info system
set atom 146 x 7.874999705353474
Setting atom values ...
  1 settings made for x
set atom 146 y 23.624999487826717
Setting atom values ...
  1 settings made for y
set atom 146 z 1.5750004299960947
Setting atom values ...
  1 settings made for z
info system
info system
print "$(x[147])"
9.4499999999999992895
print "$(y[147])"
22.050000000000000711
print "$(z[147])"
0
info system
info system
print "$(x[147])"
9.4499999999999992895
print "$(y[147])"
22.050000000000000711
print "$(z[147])"
0
info system
info system
set atom 147 x 9.450000125624108
Setting atom values ...
  1 settings made for x
set atom 147 y 22.050000317916012
Setting atom values ...
  1 settings made for y
set atom 147 z 7.698991560853474e-08
Setting atom values ...
  1 settings made for z
info system
info system
print "$(x[148])"
11.025000000000000355
print "$(y[148])"
23.625
print "$(z[148])"
1.5749999999999999556
info system
info system
print "$(x[148])"
11.025000000000000355
print "$(y[148])"
23.625
print "$(z[148])"
1.5749999999999999556
info system
info system
set atom 148 x 11.025000412242424
Setting atom values ...
  1 settings made for x
set atom 148 y 23.625000322028903
Setting atom values ...
  1 settings made for y
set atom 148 z 1.575000258828631
Setting atom values ...
  1 settings made for z
info system
info system
print "$(x[149])"
12.599999999999999645
print "$(y[149])"
22.050000000000000711
print "$(z[149])"
0
info system
info system
print "$(x[149])"
12.599999999999999645
print "$(y[149])"
22.050000000000000711
print "$(z[149])"
0
info system
info system
set atom 149 x 12.599999609860387
Setting atom values ...
  1 settings made for x
set atom 149 y 22.05000006996671
Setting atom values ...
  1 settings made for y
set atom 149 z 3.706463474403422e-07
Setting atom values ...
  1 settings made for z
info system
info system
print "$(x[150])"
14.174999999999998934
print "$(y[150])"
23.625
print "$(z[150])"
[...]

print "$(pe)"
1.1779921972414823735e+56
info system
info system
print "$(x[1961])"
31.499986787301768487
print "$(y[1961])"
25.199993280637261961
print "$(z[1961])"
28.349984915813230657
set atom 1961 x 31.537024237215117
Setting atom values ...
  1 settings made for x
set atom 1961 y 25.242087086290876
Setting atom values ...
  1 settings made for y
set atom 1961 z 28.336474856628
Setting atom values ...
  1 settings made for z
run 1 pre no post no
Step Temp E_pair E_mol TotEng Press 
    2972            0 1.1779922e+56            0 1.1779922e+56 1.5075466e+52 
    2973            0 1.1779922e+56            0 1.1779922e+56 1.5075466e+52 
Loop time of 0.000279903 on 1 procs for 1 steps with 2003 atoms

print "$(pe)"
1.1779921972414823735e+56
info system
info system
print "$(x[1248])"
11.024999678746551623
print "$(y[1248])"
7.8750001447049156056
print "$(z[1248])"
20.475000134137985697
set atom 1248 x 11.055982275187569
Setting atom values ...
  1 settings made for x
set atom 1248 y 7.931626563394679
Setting atom values ...
  1 settings made for y
set atom 1248 z 20.506356545073565
Setting atom values ...
  1 settings made for z
run 1 pre no post no
Step Temp E_pair E_mol TotEng Press 
    2973            0 1.1779922e+56            0 1.1779922e+56 1.5075466e+52 
    2974            0 1.1779922e+56            0 1.1779922e+56 1.5075466e+52 
Loop time of 0.000283957 on 1 procs for 1 steps with 2003 atoms

print "$(pe)"
1.1779921972414823735e+56
info system
info system
print "$(x[1534])"
20.42805418207958823
print "$(y[1534])"
20.464154840863006513
print "$(z[1534])"
23.633591975426579523
set atom 1534 x 20.37594585013215
Setting atom values ...
  1 settings made for x
set atom 1534 y 20.398980853586288
Setting atom values ...
  1 settings made for y
set atom 1534 z 23.608261067913592
Setting atom values ...
  1 settings made for z
run 1 pre no post no
Step Temp E_pair E_mol TotEng Press 
    2974            0 1.1779922e+56            0 1.1779922e+56 1.5075466e+52 
    2975            0 1.1779922e+56            0 1.1779922e+56 1.5075466e+52 
Loop time of 0.000261068 on 1 procs for 1 steps with 2003 atoms

print "$(pe)"
1.1779921972414823735e+56
info system
info system
print "$(x[564])"
4.7350868064825828441
print "$(y[564])"
26.845024112689280571
print "$(z[564])"
7.8686740938805348478
set atom 564 x 4.764373382146396
Setting atom values ...
  1 settings made for x
set atom 564 y 26.81875823189992
Setting atom values ...
  1 settings made for y
set atom 564 z 7.88282775708749
Setting atom values ...
  1 settings made for z
run 1 pre no post no
Step Temp E_pair E_mol TotEng Press 
    2975            0 1.1779922e+56            0 1.1779922e+56 1.5075466e+52 
    2976            0 1.1779922e+56            0 1.1779922e+56 1.5075466e+52 
Loop time of 0.00026083 on 1 procs for 1 steps with 2003 atoms

print "$(pe)"
1.1779921972414823735e+56
info system
info system
print "$(x[943])"
3.2723355037423305092
print "$(y[943])"
22.075115835801629061
print "$(z[943])"
12.663193675703221075
set atom 943 x 3.2783309413255
Setting atom values ...
  1 settings made for x
set atom 943 y 22.092922894748984
Setting atom values ...
  1 settings made for y
set atom 943 z 12.598480533972937
Setting atom values ...
  1 settings made for z
run 1 pre no post no
Step Temp E_pair E_mol TotEng Press 
    2976            0 1.1779922e+56            0 1.1779922e+56 1.5075466e+52 
    2977            0 1.1779922e+56            0 1.1779922e+56 1.5075466e+52 
Loop time of 0.000277996 on 1 procs for 1 steps with 2003 atoms

print "$(pe)"
1.1779921972414823735e+56
info system
info system
print "$(x[602])"
1.6964696383133281987
print "$(y[602])"
1.4608751497891088178
print "$(z[602])"
11.016276575756579703
set atom 602 x 1.7040792181598772
Setting atom values ...
  1 settings made for x
set atom 602 y 1.5048069630971277
Setting atom values ...
  1 settings made for y
set atom 602 z 10.97588595975366
Setting atom values ...
  1 settings made for z
run 1 pre no post no
Step Temp E_pair E_mol TotEng Press 
    2977            0 1.1779922e+56            0 1.1779922e+56 1.5075466e+52 
    2978            0 1.1779922e+56            0 1.1779922e+56 1.5075466e+52 
Loop time of 0.000279903 on 1 procs for 1 steps with 2003 atoms

print "$(pe)"
1.1779921972414823735e+56
info system
info system
print "$(x[355])"
22.046114973604538534
print "$(y[355])"
22.069045733024520217
print "$(z[355])"
3.117565409815537425
set atom 355 x 22.03203565680183
Setting atom values ...
  1 settings made for x
set atom 355 y 22.050580676525023
Setting atom values ...
  1 settings made for y
set atom 355 z 3.211318288598025
Setting atom values ...
  1 settings made for z
run 1 pre no post no
Step Temp E_pair E_mol TotEng Press 
    2978            0 1.1779922e+56            0 1.1779922e+56 1.5075466e+52 
    2979            0 1.1779922e+56            0 1.1779922e+56 1.5075466e+52 
Loop time of 0.000279188 on 1 procs for 1 steps with 2003 atoms

print "$(pe)"
1.1779921972414823735e+56
info system
info system
print "$(x[1920])"
29.998071332937559674
print "$(y[1920])"
17.327004134773634547
print "$(z[1920])"
29.949622482910825738
set atom 1920 x 29.973766328604253
Setting atom values ...
  1 settings made for x
set atom 1920 y 17.27405305194493
Setting atom values ...
  1 settings made for y
set atom 1920 z 29.992138254726253
Setting atom values ...
  1 settings made for z
run 1 pre no post no
Step Temp E_pair E_mol TotEng Press 
    2979            0 1.1779922e+56            0 1.1779922e+56 1.5075466e+52 
    2980            0 1.1779922e+56            0 1.1779922e+56 1.5075466e+52 
Loop time of 0.000282049 on 1 procs for 1 steps with 2003 atoms

print "$(pe)"
1.1779921972414823735e+56
info system
info system
print "$(x[1062])"
1.5013380973070638014
print "$(y[1062])"
10.965345843490302613
print "$(z[1062])"
17.31627326753105578
set atom 1062 x 1.5873135134091563
Setting atom values ...
  1 settings made for x
set atom 1062 y 10.941580611758962
Setting atom values ...
  1 settings made for y
set atom 1062 z 17.389730759380033
Setting atom values ...
  1 settings made for z
run 1 pre no post no
Step Temp E_pair E_mol TotEng Press 
    2980            0 1.1779922e+56            0 1.1779922e+56 1.5075466e+52 
    2981            0 1.1779922e+56            0 1.1779922e+56 1.5075466e+52 
Loop time of 0.000277042 on 1 procs for 1 steps with 2003 atoms

print "$(pe)"
1.1779921972414823735e+56
info system
info system
print "$(x[715])"
22.049999881641870303
print "$(y[715])"
15.750000120335879927
print "$(z[715])"
9.4500002282593893455
set atom 715 x 22.105583499390043
Setting atom values ...
  1 settings made for x
set atom 715 y 15.670089215712025
Setting atom values ...
  1 settings made for y
set atom 715 z 9.439529583825923
Setting atom values ...
  1 settings made for z
run 1 pre no post no
Step Temp E_pair E_mol TotEng Press 
    2981            0 1.1779922e+56            0 1.1779922e+56 1.5075466e+52 
    2982            0 1.1779922e+56            0 1.1779922e+56 1.5075466e+52 
Loop time of 0.000300169 on 1 procs for 1 steps with 2003 atoms

print "$(pe)"
1.1779921972414823735e+56
info system
info system
print "$(x[173])"
18.876094480148982058
print "$(y[173])"
25.230624955298143419
print "$(z[173])"
0.09527362739400296876
set atom 173 x 18.86060004981213
Setting atom values ...
  1 settings made for x
set atom 173 y 25.224453812159272
Setting atom values ...
  1 settings made for y
set atom 173 z 0.11986594758799479
Setting atom values ...
  1 settings made for z
run 1 pre no post no
Step Temp E_pair E_mol TotEng Press 
    2982            0 1.1779922e+56            0 1.1779922e+56 1.5075466e+52 
    2983            0 1.1779922e+56            0 1.1779922e+56 1.5075466e+52 
Loop time of 0.000267029 on 1 procs for 1 steps with 2003 atoms

print "$(pe)"
1.1779921972414823735e+56
info system
info system
print "$(x[1049])"
12.507830915365572011
print "$(y[1049])"
6.2235323827327864166
print "$(z[1049])"
15.750687473371076663
set atom 1049 x 12.506042270715646
Setting atom values ...
  1 settings made for x
set atom 1049 y 6.275425177068836
Setting atom values ...
  1 settings made for y
set atom 1049 z 15.776417382330495
Setting atom values ...
  1 settings made for z
run 1 pre no post no
Step Temp E_pair E_mol TotEng Press 
    2983            0 1.1779922e+56            0 1.1779922e+56 1.5075466e+52 
    2984            0 1.1779922e+56            0 1.1779922e+56 1.5075466e+52 
Loop time of 0.000167847 on 1 procs for 1 steps with 2003 atoms

print "$(pe)"
1.1779921972414823735e+56
info system
info system
print "$(x[356])"
23.624998558390874592
print "$(y[356])"
23.625003737263138959
print "$(z[356])"
4.7250055841025675463
set atom 356 x 23.706190237360463
Setting atom values ...
  1 settings made for x
set atom 356 y 23.584618770048404
Setting atom values ...
  1 settings made for y
set atom 356 z 4.773968796034453
Setting atom values ...
  1 settings made for z
run 1 pre no post no
Step Temp E_pair E_mol TotEng Press 
    2984            0 1.1779922e+56            0 1.1779922e+56 1.5075466e+52 
    2985            0 1.1779922e+56            0 1.1779922e+56 1.5075466e+52 
Loop time of 0.000179052 on 1 procs for 1 steps with 2003 atoms

print "$(pe)"
1.1779921972414823735e+56
info system
info system
print "$(x[1473])"
19.0468900584456442
print "$(y[1473])"
9.5129657740796300658
print "$(z[1473])"
21.978587576753298549
set atom 1473 x 19.05969102448504
Setting atom values ...
  1 settings made for x
set atom 1473 y 9.434809771972509
Setting atom values ...
  1 settings made for y
set atom 1473 z 21.984166911340562
Setting atom values ...
  1 settings made for z
run 1 pre no post no
Step Temp E_pair E_mol TotEng Press 
    2985            0 1.1779922e+56            0 1.1779922e+56 1.5075466e+52 
    2986            0 1.1779922e+56            0 1.1779922e+56 1.5075466e+52 
Loop time of 0.00018096 on 1 procs for 1 steps with 2003 atoms

print "$(pe)"
1.1779921972414823735e+56
info system
info system
print "$(x[714])"
20.528893112381322084
print "$(y[714])"
17.379788844877342768
print "$(z[714])"
11.117157108844368807
set atom 714 x 20.558059054968208
Setting atom values ...
  1 settings made for x
set atom 714 y 17.43616122591789
Setting atom values ...
  1 settings made for y
set atom 714 z 11.155466828108846
Setting atom values ...
  1 settings made for z
run 1 pre no post no
Step Temp E_pair E_mol TotEng Press 
    2986            0 1.1779922e+56            0 1.1779922e+56 1.5075466e+52 
    2987            0 1.1779922e+56            0 1.1779922e+56 1.5075466e+52 
Loop time of 0.00019908 on 1 procs for 1 steps with 2003 atoms

print "$(pe)"
1.1779921972414823735e+56
info system
info system
print "$(x[132])"
17.358429977568729186
print "$(y[132])"
20.519147436374659321
print "$(z[132])"
1.5499595294200749773
set atom 132 x 17.284811422499207
Setting atom values ...
  1 settings made for x
set atom 132 y 20.456361646390622
Setting atom values ...
  1 settings made for y
set atom 132 z 1.645947768810428
Setting atom values ...
  1 settings made for z
run 1 pre no post no
Step Temp E_pair E_mol TotEng Press 
    2987            0 1.1779922e+56            0 1.1779922e+56 1.5075466e+52 
    2988            0 1.1779922e+56            0 1.1779922e+56 1.5075466e+52 
Loop time of 0.000194073 on 1 procs for 1 steps with 2003 atoms

print "$(pe)"
1.1779921972414823735e+56
info system
info system
print "$(x[1812])"
17.382359732508117389
print "$(y[1812])"
1.4754766670273919971
print "$(z[1812])"
29.7577626078204176
set atom 1812 x 17.34105762989054
Setting atom values ...
  1 settings made for x
set atom 1812 y 1.4683504857369953
Setting atom values ...
  1 settings made for y
set atom 1812 z 29.736039000288184
Setting atom values ...
  1 settings made for z
run 1 pre no post no
Step Temp E_pair E_mol TotEng Press 
    2988            0 1.1779922e+56            0 1.1779922e+56 1.5075466e+52 
    2989            0 1.1779922e+56            0 1.1779922e+56 1.5075466e+52 
Loop time of 0.000157118 on 1 procs for 1 steps with 2003 atoms

print "$(pe)"
1.1779921972414823735e+56
info system
info system
print "$(x[982])"
1.6535496881640281419
print "$(y[982])"
29.871224244541032533
print "$(z[982])"
14.200232913681142932
set atom 982 x 1.7067643341819367
Setting atom values ...
  1 settings made for x
set atom 982 y 29.794291941292382
Setting atom values ...
  1 settings made for y
set atom 982 z 14.209854717622084
Setting atom values ...
  1 settings made for z
run 1 pre no post no
Step Temp E_pair E_mol TotEng Press 
    2989            0 1.1779922e+56            0 1.1779922e+56 1.5075466e+52 
    2990            0 1.1779922e+56            0 1.1779922e+56 1.5075466e+52 
Loop time of 0.00019002 on 1 procs for 1 steps with 2003 atoms

print "$(pe)"
1.1779921972414823735e+56
info system
info system
print "$(x[1528])"
11.058958671438945842
print "$(y[1528])"
20.531907253538054903
print "$(z[1528])"
23.731099305436931246
set atom 1528 x 11.071335049314438
Setting atom values ...
  1 settings made for x
set atom 1528 y 20.552126371443265
Setting atom values ...
  1 settings made for y
set atom 1528 z 23.6932869913091
Setting atom values ...
  1 settings made for z
run 1 pre no post no
Step Temp E_pair E_mol TotEng Press 
    2990            0 1.1779922e+56            0 1.1779922e+56 1.5075466e+52 
    2991            0 1.1779922e+56            0 1.1779922e+56 1.5075466e+52 
Loop time of 0.000187159 on 1 procs for 1 steps with 2003 atoms

print "$(pe)"
1.1779921972414823735e+56
info system
info system
print "$(x[804])"
4.8477270801007605883
print "$(y[804])"
1.5053160437593602339
print "$(z[804])"
13.976876656192848358
set atom 804 x 4.776927856536816
Setting atom values ...
  1 settings made for x
set atom 804 y 1.4889294043562098
Setting atom values ...
  1 settings made for y
set atom 804 z 13.991547770727008
Setting atom values ...
  1 settings made for z
run 1 pre no post no
Step Temp E_pair E_mol TotEng Press 
    2991            0 1.1779922e+56            0 1.1779922e+56 1.5075466e+52 
    2992            0 1.1779922e+56            0 1.1779922e+56 1.5075466e+52 
Loop time of 0.000241041 on 1 procs for 1 steps with 2003 atoms

print "$(pe)"
1.1779921972414823735e+56
info system
info system
print "$(x[753])"
18.913995039229522632
print "$(y[753])"
22.041038614031545961
print "$(z[753])"
9.5133776722577305662
set atom 753 x 18.90647109214762
Setting atom values ...
  1 settings made for x
set atom 753 y 21.95230841069864
Setting atom values ...
  1 settings made for y
set atom 753 z 9.438987556596892
Setting atom values ...
  1 settings made for z
run 1 pre no post no
Step Temp E_pair E_mol TotEng Press 
    2992            0 1.1779922e+56            0 1.1779922e+56 1.5075466e+52 
    2993            0 1.1779922e+56            0 1.1779922e+56 1.5075466e+52 
Loop time of 0.00019002 on 1 procs for 1 steps with 2003 atoms

print "$(pe)"
1.1779921972414823735e+56
info system
info system
print "$(x[1971])"
15.784647793777629943
print "$(y[1971])"
25.246069476392509756
print "$(z[1971])"
28.31191683306440865
set atom 1971 x 15.800861203743537
Setting atom values ...
  1 settings made for x
set atom 1971 y 25.287951450311066
Setting atom values ...
  1 settings made for y
set atom 1971 z 28.26243434365285
Setting atom values ...
  1 settings made for z
run 1 pre no post no
Step Temp E_pair E_mol TotEng Press 
    2993            0 1.1779922e+56            0 1.1779922e+56 1.5075466e+52 
    2994            0 1.1779922e+56            0 1.1779922e+56 1.5075466e+52 
Loop time of 0.000187159 on 1 procs for 1 steps with 2003 atoms

print "$(pe)"
1.1779921972414823735e+56
info system
info system
print "$(x[1891])"
15.724072078087838022
print "$(y[1891])"
12.685094455613151965
print "$(z[1891])"
28.291617933012496167
set atom 1891 x 15.74375553512748
Setting atom values ...
  1 settings made for x
set atom 1891 y 12.76671837548218
Setting atom values ...
  1 settings made for y
set atom 1891 z 28.197353480874323
Setting atom values ...
  1 settings made for z
run 1 pre no post no
Step Temp E_pair E_mol TotEng Press 
    2994            0 1.1779922e+56            0 1.1779922e+56 1.5075466e+52 
    2995            0 1.1779922e+56            0 1.1779922e+56 1.5075466e+52 
Loop time of 0.00018692 on 1 procs for 1 steps with 2003 atoms

print "$(pe)"
1.1779921972414823735e+56
info system
info system
print "$(x[1617])"
25.221531947278446495
print "$(y[1617])"
0.087007151868238707948
print "$(z[1617])"
25.205994421718898479
set atom 1617 x 25.28565857199688
Setting atom values ...
  1 settings made for x
set atom 1617 y 0.1544455635584097
Setting atom values ...
  1 settings made for y
set atom 1617 z 25.28884304884264
Setting atom values ...
  1 settings made for z
run 1 pre no post no
Step Temp E_pair E_mol TotEng Press 
    2995            0 1.1779922e+56            0 1.1779922e+56 1.5075466e+52 
    2996            0 1.1779922e+56            0 1.1779922e+56 1.5075466e+52 
Loop time of 0.000200033 on 1 procs for 1 steps with 2003 atoms

print "$(pe)"
1.1779921972414823735e+56
info system
info system
print "$(x[1577])"
25.208191812315845937
print "$(y[1577])"
25.292437111931491245
print "$(z[1577])"
22.077601688688559989
set atom 1577 x 25.148145273325277
Setting atom values ...
  1 settings made for x
set atom 1577 y 25.27461144931172
Setting atom values ...
  1 settings made for y
set atom 1577 z 22.08073059550111
Setting atom values ...
  1 settings made for z
run 1 pre no post no
Step Temp E_pair E_mol TotEng Press 
    2996            0 1.1779922e+56            0 1.1779922e+56 1.5075466e+52 
    2997            0 1.1779922e+56            0 1.1779922e+56 1.5075466e+52 
Loop time of 0.000226021 on 1 procs for 1 steps with 2003 atoms

print "$(pe)"
1.1779921972414823735e+56
info system
info system
print "$(x[1245])"
6.3669615203263205672
print "$(y[1245])"
6.1351204579229925429
print "$(z[1245])"
19.021753337661131411
set atom 1245 x 6.344105138246915
Setting atom values ...
  1 settings made for x
set atom 1245 y 6.054307693096785
Setting atom values ...
  1 settings made for y
set atom 1245 z 18.947456556295005
Setting atom values ...
  1 settings made for z
run 1 pre no post no
Step Temp E_pair E_mol TotEng Press 
    2997            0 1.1779922e+56            0 1.1779922e+56 1.5075466e+52 
    2998            0 1.1779922e+56            0 1.1779922e+56 1.5075466e+52 
Loop time of 0.000198126 on 1 procs for 1 steps with 2003 atoms

print "$(pe)"
1.1779921972414823735e+56
info system
info system
print "$(x[518])"
26.84398521735554155
print "$(y[518])"
17.35094179871909148
print "$(z[518])"
7.7908203987005713032
set atom 518 x 26.852428152007516
Setting atom values ...
  1 settings made for x
set atom 518 y 17.377100531860904
Setting atom values ...
  1 settings made for y
set atom 518 z 7.740862727994057
Setting atom values ...
  1 settings made for z
run 1 pre no post no
Step Temp E_pair E_mol TotEng Press 
    2998            0 1.1779922e+56            0 1.1779922e+56 1.5075466e+52 
    2999            0 1.1779922e+56            0 1.1779922e+56 1.5075466e+52 
Loop time of 0.000198126 on 1 procs for 1 steps with 2003 atoms

print "$(pe)"
1.1779921972414823735e+56
info system
info system
print "$(x[1888])"
11.030865094451117514
print "$(y[1888])"
14.158886231927338528
print "$(z[1888])"
29.99828889495149653
set atom 1888 x 11.117451888187565
Setting atom values ...
  1 settings made for x
set atom 1888 y 14.177107353277647
Setting atom values ...
  1 settings made for y
set atom 1888 z 30.095376254659712
Setting atom values ...
  1 settings made for z
run 1 pre no post no
Step Temp E_pair E_mol TotEng Press 
    2999            0 1.1779922e+56            0 1.1779922e+56 1.5075466e+52 
    3000            0 1.1779922e+56            0 1.1779922e+56 1.5075466e+52 
Loop time of 0.000208139 on 1 procs for 1 steps with 2003 atoms

print "$(pe)"
1.1779921972414823735e+56
print "$(pe)"
1.1779921972414823735e+56
Total wall time: 0:00:26
